6
pbc=[F, F, F] list_num_par=6 energy=-1.26974174 iter=20000 frozen=false Lattice="15.00000000 0.00000000 0.00000000 0.00000000 15.00000000 0.00000000 0.00000000 0.00000000 15.00000000" energy_frozen_part=0.00000000 Properties=species:S:1:pos:R:3:velocities:R:3:Z:I:1
H        10.50886897       6.83024202      11.66740701         0.00000000       0.00000000       0.00000000          1
H         8.35949090       5.05785152      11.87497465         0.00000000       0.00000000       0.00000000          1
H         8.91084134       8.59732608      10.20863165         0.00000000       0.00000000       0.00000000          1
H         6.76146211       6.82493059      10.41620787         0.00000000       0.00000000       0.00000000          1
H         9.19676022       5.94999479       9.36353537         0.00000000       0.00000000       0.00000000          1
H         8.07357077       7.70517938      12.72007282         0.00000000       0.00000000       0.00000000          1
6
pbc=[F, F, F] list_num_par=6 energy=-1.26974174 iter=20000 frozen=false Lattice="15.00000000 0.00000000 0.00000000 0.00000000 15.00000000 0.00000000 0.00000000 0.00000000 15.00000000" energy_frozen_part=0.00000000 Properties=species:S:1:pos:R:3:velocities:R:3:Z:I:1
H        10.50878201       6.82867286      11.66451984         0.00000000       0.00000000       0.00000000          1
H         8.35981005       5.05575163      11.87176011         0.00000000       0.00000000       0.00000000          1
H         8.91046989       8.59546193      10.20570455         0.00000000       0.00000000       0.00000000          1
H         6.76149710       6.82253667      10.41295295         0.00000000       0.00000000       0.00000000          1
H         9.19710899       5.94826010       9.36045949         0.00000000       0.00000000       0.00000000          1
H         8.07317566       7.70295426      12.71700526         0.00000000       0.00000000       0.00000000          1
6
pbc=[F, F, F] list_num_par=6 energy=-1.26974174 iter=20000 frozen=false Lattice="15.00000000 0.00000000 0.00000000 0.00000000 15.00000000 0.00000000 0.00000000 0.00000000 15.00000000" energy_frozen_part=0.00000000 Properties=species:S:1:pos:R:3:velocities:R:3:Z:I:1
H        10.50875203       6.82870021      11.66446755         0.00000000       0.00000000       0.00000000          1
H         8.35980619       5.05573925      11.87169772         0.00000000       0.00000000       0.00000000          1
H         8.91041125       8.59549173      10.20569352         0.00000000       0.00000000       0.00000000          1
H         6.76146511       6.82253092      10.41291537         0.00000000       0.00000000       0.00000000          1
H         9.19708368       5.94830680       9.36040731         0.00000000       0.00000000       0.00000000          1
H         8.07313082       7.70292161      12.71698564         0.00000000       0.00000000       0.00000000          1
6
pbc=[F, F, F] list_num_par=6 energy=-1.26974174 iter=20000 frozen=false Lattice="15.00000000 0.00000000 0.00000000 0.00000000 15.00000000 0.00000000 0.00000000 0.00000000 15.00000000" energy_frozen_part=0.00000000 Properties=species:S:1:pos:R:3:velocities:R:3:Z:I:1
H         7.27129787      10.10843987      11.10327666         0.00000000       0.00000000       0.00000000          1
H         8.89001979       7.83369655      11.20100851         0.00000000       0.00000000       0.00000000          1
H         5.92508551       9.05553010       8.89344066         0.00000000       0.00000000       0.00000000          1
H         6.10914479       7.57249337      11.25374077         0.00000000       0.00000000       0.00000000          1
H         7.54381042       6.78078046       8.99117259         0.00000000       0.00000000       0.00000000          1
H         8.70595844       9.31672704       8.84070427         0.00000000       0.00000000       0.00000000          1
6
pbc=[F, F, F] list_num_par=6 energy=-1.26974174 iter=20000 frozen=false Lattice="15.00000000 0.00000000 0.00000000 0.00000000 15.00000000 0.00000000 0.00000000 0.00000000 15.00000000" energy_frozen_part=0.00000000 Properties=species:S:1:pos:R:3:velocities:R:3:Z:I:1
H        10.50911623       6.82853052      11.66481964         0.00000000       0.00000000       0.00000000          1
H         8.35973830       5.05604218      11.87161166         0.00000000       0.00000000       0.00000000          1
H         8.91130559       8.59591325      10.20618376         0.00000000       0.00000000       0.00000000          1
H         6.76192639       6.82343149      10.41297326         0.00000000       0.00000000       0.00000000          1
H         9.19741486       5.94878751       9.36052407         0.00000000       0.00000000       0.00000000          1
H         8.07362270       7.70317104      12.71727482         0.00000000       0.00000000       0.00000000          1
6
pbc=[F, F, F] list_num_par=6 energy=-1.26974174 iter=20000 frozen=false Lattice="15.00000000 0.00000000 0.00000000 0.00000000 15.00000000 0.00000000 0.00000000 0.00000000 15.00000000" energy_frozen_part=0.00000000 Properties=species:S:1:pos:R:3:velocities:R:3:Z:I:1
H        10.50874150       6.82870764      11.66449718         0.00000000       0.00000000       0.00000000          1
H         8.35982270       5.05570978      11.87165784         0.00000000       0.00000000       0.00000000          1
H         8.91039354       8.59549313      10.20571916         0.00000000       0.00000000       0.00000000          1
H         6.76147683       6.82249420      10.41288268         0.00000000       0.00000000       0.00000000          1
H         9.19712183       5.94833055       9.36039282         0.00000000       0.00000000       0.00000000          1
H         8.07309640       7.70287622      12.71698587         0.00000000       0.00000000       0.00000000          1
6
pbc=[F, F, F] list_num_par=6 energy=-1.26974174 iter=20000 frozen=false Lattice="15.00000000 0.00000000 0.00000000 0.00000000 15.00000000 0.00000000 0.00000000 0.00000000 15.00000000" energy_frozen_part=0.00000000 Properties=species:S:1:pos:R:3:velocities:R:3:Z:I:1
H        10.50887503       6.83025396      11.66741834         0.00000000       0.00000000       0.00000000          1
H         8.35949197       5.05786269      11.87499252         0.00000000       0.00000000       0.00000000          1
H         8.91084925       8.59733300      10.20864339         0.00000000       0.00000000       0.00000000          1
H         6.76146733       6.82494498      10.41621228         0.00000000       0.00000000       0.00000000          1
H         9.19676386       5.95000865       9.36354504         0.00000000       0.00000000       0.00000000          1
H         8.07357967       7.70518926      12.72008449         0.00000000       0.00000000       0.00000000          1
6
pbc=[F, F, F] list_num_par=6 energy=-1.26974174 iter=20000 frozen=false Lattice="15.00000000 0.00000000 0.00000000 0.00000000 15.00000000 0.00000000 0.00000000 0.00000000 15.00000000" energy_frozen_part=0.00000000 Properties=species:S:1:pos:R:3:velocities:R:3:Z:I:1
H         7.27156456      10.10845243      11.10252757         0.00000000       0.00000000       0.00000000          1
H         8.89012446       7.83359915      11.20043980         0.00000000       0.00000000       0.00000000          1
H         5.92492928       9.05522397       8.89309456         0.00000000       0.00000000       0.00000000          1
H         6.10923629       7.57261638      11.25364545         0.00000000       0.00000000       0.00000000          1
H         7.54349801       6.78037072       8.99100402         0.00000000       0.00000000       0.00000000          1
H         8.70581960       9.31620700       8.83989053         0.00000000       0.00000000       0.00000000          1
6
pbc=[F, F, F] list_num_par=6 energy=-1.26974174 iter=20000 frozen=false Lattice="15.00000000 0.00000000 0.00000000 0.00000000 15.00000000 0.00000000 0.00000000 0.00000000 15.00000000" energy_frozen_part=0.00000000 Properties=species:S:1:pos:R:3:velocities:R:3:Z:I:1
H        10.50887099       6.83027150      11.66736961         0.00000000       0.00000000       0.00000000          1
H         8.35953298       5.05783875      11.87495904         0.00000000       0.00000000       0.00000000          1
H         8.91079361       8.59733174      10.20863230         0.00000000       0.00000000       0.00000000          1
H         6.76145429       6.82489957      10.41621681         0.00000000       0.00000000       0.00000000          1
H         9.19675613       5.95001647       9.36351155         0.00000000       0.00000000       0.00000000          1
H         8.07357633       7.70515886      12.72007997         0.00000000       0.00000000       0.00000000          1
6
pbc=[F, F, F] list_num_par=6 energy=-1.26974174 iter=20000 frozen=false Lattice="15.00000000 0.00000000 0.00000000 0.00000000 15.00000000 0.00000000 0.00000000 0.00000000 15.00000000" energy_frozen_part=0.00000000 Properties=species:S:1:pos:R:3:velocities:R:3:Z:I:1
H        10.50912023       6.82852261      11.66482048         0.00000000       0.00000000       0.00000000          1
H         8.35974114       5.05604561      11.87161271         0.00000000       0.00000000       0.00000000          1
H         8.91130847       8.59591769      10.20618082         0.00000000       0.00000000       0.00000000          1
H         6.76192631       6.82344011      10.41297979         0.00000000       0.00000000       0.00000000          1
H         9.19741413       5.94879335       9.36051832         0.00000000       0.00000000       0.00000000          1
H         8.07362818       7.70317342      12.71727329         0.00000000       0.00000000       0.00000000          1
6
pbc=[F, F, F] list_num_par=6 energy=-1.26974174 iter=20000 frozen=false Lattice="15.00000000 0.00000000 0.00000000 0.00000000 15.00000000 0.00000000 0.00000000 0.00000000 15.00000000" energy_frozen_part=0.00000000 Properties=species:S:1:pos:R:3:velocities:R:3:Z:I:1
H         7.27125177      10.10848055      11.10326717         0.00000000       0.00000000       0.00000000          1
H         8.89003566       7.83378488      11.20102369         0.00000000       0.00000000       0.00000000          1
H         5.92506666       9.05550711       8.89344432         0.00000000       0.00000000       0.00000000          1
H         6.10916196       7.57250253      11.25375737         0.00000000       0.00000000       0.00000000          1
H         7.54385454       6.78080250       8.99120214         0.00000000       0.00000000       0.00000000          1
H         8.70593935       9.31678659       8.84070890         0.00000000       0.00000000       0.00000000          1
6
pbc=[F, F, F] list_num_par=6 energy=-1.26974174 iter=20000 frozen=false Lattice="15.00000000 0.00000000 0.00000000 0.00000000 15.00000000 0.00000000 0.00000000 0.00000000 15.00000000" energy_frozen_part=0.00000000 Properties=species:S:1:pos:R:3:velocities:R:3:Z:I:1
H        10.50873571       6.82871035      11.66449178         0.00000000       0.00000000       0.00000000          1
H         8.35983021       5.05570161      11.87165719         0.00000000       0.00000000       0.00000000          1
H         8.91038091       8.59550123      10.20573203         0.00000000       0.00000000       0.00000000          1
H         6.76146719       6.82249298      10.41289447         0.00000000       0.00000000       0.00000000          1
H         9.19711025       5.94833252       9.36039513         0.00000000       0.00000000       0.00000000          1
H         8.07309285       7.70286431      12.71699334         0.00000000       0.00000000       0.00000000          1
6
pbc=[F, F, F] list_num_par=6 energy=-1.26974174 iter=20000 frozen=false Lattice="15.00000000 0.00000000 0.00000000 0.00000000 15.00000000 0.00000000 0.00000000 0.00000000 15.00000000" energy_frozen_part=0.00000000 Properties=species:S:1:pos:R:3:velocities:R:3:Z:I:1
H        10.50873991       6.82871050      11.66449286         0.00000000       0.00000000       0.00000000          1
H         8.35982383       5.05570469      11.87166000         0.00000000       0.00000000       0.00000000          1
H         8.91037832       8.59550074      10.20573537         0.00000000       0.00000000       0.00000000          1
H         6.76147009       6.82249607      10.41289271         0.00000000       0.00000000       0.00000000          1
H         9.19711408       5.94833386       9.36039548         0.00000000       0.00000000       0.00000000          1
H         8.07308666       7.70286786      12.71699408         0.00000000       0.00000000       0.00000000          1
6
pbc=[F, F, F] list_num_par=6 energy=-1.26974174 iter=20000 frozen=false Lattice="15.00000000 0.00000000 0.00000000 0.00000000 15.00000000 0.00000000 0.00000000 0.00000000 15.00000000" energy_frozen_part=0.00000000 Properties=species:S:1:pos:R:3:velocities:R:3:Z:I:1
H        10.50874689       6.82870815      11.66447471         0.00000000       0.00000000       0.00000000          1
H         8.35981285       5.05573922      11.87169848         0.00000000       0.00000000       0.00000000          1
H         8.91039692       8.59548796      10.20569331         0.00000000       0.00000000       0.00000000          1
H         6.76146481       6.82252280      10.41291923         0.00000000       0.00000000       0.00000000          1
H         9.19708425       5.94830467       9.36040408         0.00000000       0.00000000       0.00000000          1
H         8.07312977       7.70291886      12.71698814         0.00000000       0.00000000       0.00000000          1
6
pbc=[F, F, F] list_num_par=6 energy=-1.26974174 iter=20000 frozen=false Lattice="15.00000000 0.00000000 0.00000000 0.00000000 15.00000000 0.00000000 0.00000000 0.00000000 15.00000000" energy_frozen_part=0.00000000 Properties=species:S:1:pos:R:3:velocities:R:3:Z:I:1
H        10.50879179       6.82868311      11.66451238         0.00000000       0.00000000       0.00000000          1
H         8.35983278       5.05574176      11.87178709         0.00000000       0.00000000       0.00000000          1
H         8.91045319       8.59544258      10.20567831         0.00000000       0.00000000       0.00000000          1
H         6.76150309       6.82249803      10.41295514         0.00000000       0.00000000       0.00000000          1
H         9.19711882       5.94823116       9.36047042         0.00000000       0.00000000       0.00000000          1
H         8.07317329       7.70295642      12.71699374         0.00000000       0.00000000       0.00000000          1
6
pbc=[F, F, F] list_num_par=6 energy=-1.26974174 iter=20000 frozen=false Lattice="15.00000000 0.00000000 0.00000000 0.00000000 15.00000000 0.00000000 0.00000000 0.00000000 15.00000000" energy_frozen_part=0.00000000 Properties=species:S:1:pos:R:3:velocities:R:3:Z:I:1
H        10.50912059       6.82851944      11.66481716         0.00000000       0.00000000       0.00000000          1
H         8.35974357       5.05603569      11.87160311         0.00000000       0.00000000       0.00000000          1
H         8.91130465       8.59591094      10.20618557         0.00000000       0.00000000       0.00000000          1
H         6.76192628       6.82342392      10.41297395         0.00000000       0.00000000       0.00000000          1
H         9.19742000       5.94879207       9.36051280         0.00000000       0.00000000       0.00000000          1
H         8.07362702       7.70315456      12.71728047         0.00000000       0.00000000       0.00000000          1
6
pbc=[F, F, F] list_num_par=6 energy=-1.26974174 iter=20000 frozen=false Lattice="15.00000000 0.00000000 0.00000000 0.00000000 15.00000000 0.00000000 0.00000000 0.00000000 15.00000000" energy_frozen_part=0.00000000 Properties=species:S:1:pos:R:3:velocities:R:3:Z:I:1
H        10.50886185       6.83025154      11.66742244         0.00000000       0.00000000       0.00000000          1
H         8.35948410       5.05786329      11.87499308         0.00000000       0.00000000       0.00000000          1
H         8.91083048       8.59733144      10.20865298         0.00000000       0.00000000       0.00000000          1
H         6.76145350       6.82494214      10.41622572         0.00000000       0.00000000       0.00000000          1
H         9.19675241       5.95000390       9.36355118         0.00000000       0.00000000       0.00000000          1
H         8.07356410       7.70518613      12.72009850         0.00000000       0.00000000       0.00000000          1
6
pbc=[F, F, F] list_num_par=6 energy=-1.26974174 iter=20000 frozen=false Lattice="15.00000000 0.00000000 0.00000000 0.00000000 15.00000000 0.00000000 0.00000000 0.00000000 15.00000000" energy_frozen_part=0.00000000 Properties=species:S:1:pos:R:3:velocities:R:3:Z:I:1
H        10.50874818       6.82870462      11.66446732         0.00000000       0.00000000       0.00000000          1
H         8.35981059       5.05573842      11.87169986         0.00000000       0.00000000       0.00000000          1
H         8.91039435       8.59549105      10.20569031         0.00000000       0.00000000       0.00000000          1
H         6.76145852       6.82252787      10.41292989         0.00000000       0.00000000       0.00000000          1
H         9.19707835       5.94830789       9.36040294         0.00000000       0.00000000       0.00000000          1
H         8.07313678       7.70292874      12.71698803         0.00000000       0.00000000       0.00000000          1
6
pbc=[F, F, F] list_num_par=6 energy=-1.26974174 iter=20000 frozen=false Lattice="15.00000000 0.00000000 0.00000000 0.00000000 15.00000000 0.00000000 0.00000000 0.00000000 15.00000000" energy_frozen_part=0.00000000 Properties=species:S:1:pos:R:3:velocities:R:3:Z:I:1
H        10.50908670       6.82848867      11.66477597         0.00000000       0.00000000       0.00000000          1
H         8.35968852       5.05602544      11.87156713         0.00000000       0.00000000       0.00000000          1
H         8.91128605       8.59590775      10.20617126         0.00000000       0.00000000       0.00000000          1
H         6.76189169       6.82344525      10.41295311         0.00000000       0.00000000       0.00000000          1
H         9.19736787       5.94878991       9.36047666         0.00000000       0.00000000       0.00000000          1
H         8.07360961       7.70314008      12.71725702         0.00000000       0.00000000       0.00000000          1
6
pbc=[F, F, F] list_num_par=6 energy=-1.26974174 iter=20000 frozen=false Lattice="15.00000000 0.00000000 0.00000000 0.00000000 15.00000000 0.00000000 0.00000000 0.00000000 15.00000000" energy_frozen_part=0.00000000 Properties=species:S:1:pos:R:3:velocities:R:3:Z:I:1
H        10.50878044       6.82866512      11.66450931         0.00000000       0.00000000       0.00000000          1
H         8.35980772       5.05575158      11.87175970         0.00000000       0.00000000       0.00000000          1
H         8.91048092       8.59546608      10.20570267         0.00000000       0.00000000       0.00000000          1
H         6.76150685       6.82254630      10.41294076         0.00000000       0.00000000       0.00000000          1
H         9.19710905       5.94826061       9.36045242         0.00000000       0.00000000       0.00000000          1
H         8.07317649       7.70295544      12.71699863         0.00000000       0.00000000       0.00000000          1
6
pbc=[F, F, F] list_num_par=6 energy=-1.26974174 iter=20000 frozen=false Lattice="15.00000000 0.00000000 0.00000000 0.00000000 15.00000000 0.00000000 0.00000000 0.00000000 15.00000000" energy_frozen_part=0.00000000 Properties=species:S:1:pos:R:3:velocities:R:3:Z:I:1
H        10.50886857       6.83024830      11.66740443         0.00000000       0.00000000       0.00000000          1
H         8.35949388       5.05785053      11.87496797         0.00000000       0.00000000       0.00000000          1
H         8.91084330       8.59733281      10.20864271         0.00000000       0.00000000       0.00000000          1
H         6.76146549       6.82494236      10.41621026         0.00000000       0.00000000       0.00000000          1
H         9.19675730       5.95001395       9.36352652         0.00000000       0.00000000       0.00000000          1
H         8.07357627       7.70517655      12.72008663         0.00000000       0.00000000       0.00000000          1
6
pbc=[F, F, F] list_num_par=6 energy=-1.26974174 iter=20000 frozen=false Lattice="15.00000000 0.00000000 0.00000000 0.00000000 15.00000000 0.00000000 0.00000000 0.00000000 15.00000000" energy_frozen_part=0.00000000 Properties=species:S:1:pos:R:3:velocities:R:3:Z:I:1
H        10.50874150       6.82870764      11.66449718         0.00000000       0.00000000       0.00000000          1
H         8.35982270       5.05570978      11.87165784         0.00000000       0.00000000       0.00000000          1
H         8.91038722       8.59549659      10.20572141         0.00000000       0.00000000       0.00000000          1
H         6.76147378       6.82249810      10.41288752         0.00000000       0.00000000       0.00000000          1
H         9.19712482       5.94832875       9.36039432         0.00000000       0.00000000       0.00000000          1
H         8.07309910       7.70287655      12.71699001         0.00000000       0.00000000       0.00000000          1
6
pbc=[F, F, F] list_num_par=6 energy=-1.26974174 iter=20000 frozen=false Lattice="15.00000000 0.00000000 0.00000000 0.00000000 15.00000000 0.00000000 0.00000000 0.00000000 15.00000000" energy_frozen_part=0.00000000 Properties=species:S:1:pos:R:3:velocities:R:3:Z:I:1
H        10.50868736       6.82889399      11.66493482         0.00000000       0.00000000       0.00000000          1
H         8.35967737       5.05595107      11.87155960         0.00000000       0.00000000       0.00000000          1
H         8.91073360       8.59576406      10.20583667         0.00000000       0.00000000       0.00000000          1
H         6.76172242       6.82282288      10.41245775         0.00000000       0.00000000       0.00000000          1
H         9.19758437       5.94860981       9.36050930         0.00000000       0.00000000       0.00000000          1
H         8.07282537       7.70310858      12.71688415         0.00000000       0.00000000       0.00000000          1
6
pbc=[F, F, F] list_num_par=6 energy=-1.26974174 iter=20000 frozen=false Lattice="15.00000000 0.00000000 0.00000000 0.00000000 15.00000000 0.00000000 0.00000000 0.00000000 15.00000000" energy_frozen_part=0.00000000 Properties=species:S:1:pos:R:3:velocities:R:3:Z:I:1
H        10.50886213       6.83024530      11.66742243         0.00000000       0.00000000       0.00000000          1
H         8.35948104       5.05785329      11.87497242         0.00000000       0.00000000       0.00000000          1
H         8.91084382       8.59732700      10.20863273         0.00000000       0.00000000       0.00000000          1
H         6.76146972       6.82493092      10.41618628         0.00000000       0.00000000       0.00000000          1
H         9.19677316       5.95000373       9.36353723         0.00000000       0.00000000       0.00000000          1
H         8.07355590       7.70518358      12.72006403         0.00000000       0.00000000       0.00000000          1
6
pbc=[F, F, F] list_num_par=6 energy=-1.26974174 iter=20000 frozen=false Lattice="15.00000000 0.00000000 0.00000000 0.00000000 15.00000000 0.00000000 0.00000000 0.00000000 15.00000000" energy_frozen_part=0.00000000 Properties=species:S:1:pos:R:3:velocities:R:3:Z:I:1
H        10.50875284       6.82869664      11.66446498         0.00000000       0.00000000       0.00000000          1
H         8.35980826       5.05574045      11.87169685         0.00000000       0.00000000       0.00000000          1
H         8.91040390       8.59549926      10.20569862         0.00000000       0.00000000       0.00000000          1
H         6.76146220       6.82253502      10.41293017         0.00000000       0.00000000       0.00000000          1
H         9.19707917       5.94831557       9.36040148         0.00000000       0.00000000       0.00000000          1
H         8.07314201       7.70292248      12.71699081         0.00000000       0.00000000       0.00000000          1
6
pbc=[F, F, F] list_num_par=6 energy=-1.26974174 iter=20000 frozen=false Lattice="15.00000000 0.00000000 0.00000000 0.00000000 15.00000000 0.00000000 0.00000000 0.00000000 15.00000000" energy_frozen_part=0.00000000 Properties=species:S:1:pos:R:3:velocities:R:3:Z:I:1
H        10.50907166       6.82851262      11.66478850         0.00000000       0.00000000       0.00000000          1
H         8.35969386       5.05603419      11.87159309         0.00000000       0.00000000       0.00000000          1
H         8.91125082       8.59590726      10.20616541         0.00000000       0.00000000       0.00000000          1
H         6.76187641       6.82342789      10.41296610         0.00000000       0.00000000       0.00000000          1
H         9.19736428       5.94877725       9.36049519         0.00000000       0.00000000       0.00000000          1
H         8.07358672       7.70315682      12.71726036         0.00000000       0.00000000       0.00000000          1
6
pbc=[F, F, F] list_num_par=6 energy=-1.26974174 iter=20000 frozen=false Lattice="15.00000000 0.00000000 0.00000000 0.00000000 15.00000000 0.00000000 0.00000000 0.00000000 15.00000000" energy_frozen_part=0.00000000 Properties=species:S:1:pos:R:3:velocities:R:3:Z:I:1
H         7.27126173      10.10849344      11.10317540         0.00000000       0.00000000       0.00000000          1
H         8.89000781       7.83376522      11.20099414         0.00000000       0.00000000       0.00000000          1
H         5.92504988       9.05548499       8.89338886         0.00000000       0.00000000       0.00000000          1
H         6.10913073       7.57254280      11.25374331         0.00000000       0.00000000       0.00000000          1
H         7.54380071       6.78076055       8.99120130         0.00000000       0.00000000       0.00000000          1
H         8.70592818       9.31671517       8.84063889         0.00000000       0.00000000       0.00000000          1
6
pbc=[F, F, F] list_num_par=6 energy=-1.26974174 iter=20000 frozen=false Lattice="15.00000000 0.00000000 0.00000000 0.00000000 15.00000000 0.00000000 0.00000000 0.00000000 15.00000000" energy_frozen_part=0.00000000 Properties=species:S:1:pos:R:3:velocities:R:3:Z:I:1
H        10.50886255       6.83023734      11.66741797         0.00000000       0.00000000       0.00000000          1
H         8.35948219       5.05784665      11.87500320         0.00000000       0.00000000       0.00000000          1
H         8.91084908       8.59731603      10.20863000         0.00000000       0.00000000       0.00000000          1
H         6.76146469       6.82492715      10.41621227         0.00000000       0.00000000       0.00000000          1
H         9.19675427       5.94997795       9.36355523         0.00000000       0.00000000       0.00000000          1
H         8.07356855       7.70518682      12.72007492         0.00000000       0.00000000       0.00000000          1
6
pbc=[F, F, F] list_num_par=6 energy=-1.26974174 iter=20000 frozen=false Lattice="15.00000000 0.00000000 0.00000000 0.00000000 15.00000000 0.00000000 0.00000000 0.00000000 15.00000000" energy_frozen_part=0.00000000 Properties=species:S:1:pos:R:3:velocities:R:3:Z:I:1
H        10.50874903       6.82870109      11.66447867         0.00000000       0.00000000       0.00000000          1
H         8.35980466       5.05573382      11.87170965         0.00000000       0.00000000       0.00000000          1
H         8.91040813       8.59548614      10.20569974         0.00000000       0.00000000       0.00000000          1
H         6.76146632       6.82252592      10.41292636         0.00000000       0.00000000       0.00000000          1
H         9.19707994       5.94829854       9.36041708         0.00000000       0.00000000       0.00000000          1
H         8.07313025       7.70291827      12.71699238         0.00000000       0.00000000       0.00000000          1
6
pbc=[F, F, F] list_num_par=6 energy=-1.26974174 iter=20000 frozen=false Lattice="15.00000000 0.00000000 0.00000000 0.00000000 15.00000000 0.00000000 0.00000000 0.00000000 15.00000000" energy_frozen_part=0.00000000 Properties=species:S:1:pos:R:3:velocities:R:3:Z:I:1
H        10.50885333       6.83025062      11.66742085         0.00000000       0.00000000       0.00000000          1
H         8.35947476       5.05785565      11.87499486         0.00000000       0.00000000       0.00000000          1
H         8.91082715       8.59733401      10.20864694         0.00000000       0.00000000       0.00000000          1
H         6.76144816       6.82493639      10.41621687         0.00000000       0.00000000       0.00000000          1
H         9.19674661       5.95000567       9.36355641         0.00000000       0.00000000       0.00000000          1
H         8.07355891       7.70518181      12.72008876         0.00000000       0.00000000       0.00000000          1
6
pbc=[F, F, F] list_num_par=6 energy=-1.26974174 iter=20000 frozen=false Lattice="15.00000000 0.00000000 0.00000000 0.00000000 15.00000000 0.00000000 0.00000000 0.00000000 15.00000000" energy_frozen_part=0.00000000 Properties=species:S:1:pos:R:3:velocities:R:3:Z:I:1
H         7.27131205      10.10844040      11.10328408         0.00000000       0.00000000       0.00000000          1
H         8.89002941       7.83368946      11.20100090         0.00000000       0.00000000       0.00000000          1