6
pbc=[F, F, F] list_num_par=6 energy=81.28280502 iter=9 frozen=false Lattice="15.00000000 0.00000000 0.00000000 0.00000000 15.00000000 0.00000000 0.00000000 0.00000000 15.00000000" energy_frozen_part=0.00000000 Properties=species:S:1:pos:R:3:velocities:R:3:Z:I:1
H        13.85597947      10.28931111      12.58738769         0.00000000       0.00000000       0.00000000          1
H         6.87801677       2.06225963       3.84724893         0.00000000       0.00000000       0.00000000          1
H         1.39304612       5.60734172       6.04882099         0.00000000       0.00000000       0.00000000          1
H         2.80221401       5.43867317       5.31850831         0.00000000       0.00000000       0.00000000          1
H        11.29666511      12.34316598       4.02123481         0.00000000       0.00000000       0.00000000          1
H         9.75511737      10.99473002       0.57499721         0.00000000       0.00000000       0.00000000          1
6
pbc=[F, F, F] list_num_par=6 energy=2.19631996 iter=19 frozen=false Lattice="15.00000000 0.00000000 0.00000000 0.00000000 15.00000000 0.00000000 0.00000000 0.00000000 15.00000000" energy_frozen_part=0.00000000 Properties=species:S:1:pos:R:3:velocities:R:3:Z:I:1
H         2.26726081      10.57525699      11.68309186         0.00000000       0.00000000       0.00000000          1
H         5.25574246       8.97335693       1.53110502         0.00000000       0.00000000       0.00000000          1
H         7.56855685       8.85447041      10.46004578         0.00000000       0.00000000       0.00000000          1
H         2.15181417      10.66015846      13.77179398         0.00000000       0.00000000       0.00000000          1
H         8.66952145       1.63035176       1.17786920         0.00000000       0.00000000       0.00000000          1
H        11.61578691       6.46636966       4.65218766         0.00000000       0.00000000       0.00000000          1
6
pbc=[F, F, F] list_num_par=6 energy=-0.00050200 iter=29 frozen=false Lattice="15.00000000 0.00000000 0.00000000 0.00000000 15.00000000 0.00000000 0.00000000 0.00000000 15.00000000" energy_frozen_part=0.00000000 Properties=species:S:1:pos:R:3:velocities:R:3:Z:I:1
H         2.56966099       0.05664497      10.57992151         0.00000000       0.00000000       0.00000000          1
H        13.15548487       9.05098793      13.15671461         0.00000000       0.00000000       0.00000000          1
H         5.72582200      14.29607752       8.54919225         0.00000000       0.00000000       0.00000000          1
H        10.58876343       7.35858027       3.72392691         0.00000000       0.00000000       0.00000000          1
H         2.41538149       8.14022567      13.11075212         0.00000000       0.00000000       0.00000000          1
H        11.90742594       0.25782007      13.03513082         0.00000000       0.00000000       0.00000000          1
6
pbc=[F, F, F] list_num_par=6 energy=-0.00426634 iter=39 frozen=false Lattice="15.00000000 0.00000000 0.00000000 0.00000000 15.00000000 0.00000000 0.00000000 0.00000000 15.00000000" energy_frozen_part=0.00000000 Properties=species:S:1:pos:R:3:velocities:R:3:Z:I:1
H         6.29410722      14.17240992       5.71711725         0.00000000       0.00000000       0.00000000          1
H        10.77002409      11.77823698       9.39233677         0.00000000       0.00000000       0.00000000          1
H        14.96902977       0.48480380       2.93379383         0.00000000       0.00000000       0.00000000          1
H        14.97808349       8.60132559      11.60915753         0.00000000       0.00000000       0.00000000          1
H         5.42878279       6.86184369      14.70914757         0.00000000       0.00000000       0.00000000          1
H         0.16045818       2.75453506       3.65438950         0.00000000       0.00000000       0.00000000          1
6
pbc=[F, F, F] list_num_par=6 energy=-0.00662186 iter=49 frozen=false Lattice="15.00000000 0.00000000 0.00000000 0.00000000 15.00000000 0.00000000 0.00000000 0.00000000 15.00000000" energy_frozen_part=0.00000000 Properties=species:S:1:pos:R:3:velocities:R:3:Z:I:1
H         7.84614207       7.49375863       5.12424743         0.00000000       0.00000000       0.00000000          1
H         6.40103863      14.47253054      10.87463679         0.00000000       0.00000000       0.00000000          1
H         1.31050089       0.68323606       6.35312273         0.00000000       0.00000000       0.00000000          1
H         3.23006108       0.01369909      11.63351726         0.00000000       0.00000000       0.00000000          1
H         1.52893854      10.68049060       8.58136791         0.00000000       0.00000000       0.00000000          1
H         7.34561864       9.26077135      13.81494443         0.00000000       0.00000000       0.00000000          1
6
pbc=[F, F, F] list_num_par=6 energy=-0.00900348 iter=59 frozen=false Lattice="15.00000000 0.00000000 0.00000000 0.00000000 15.00000000 0.00000000 0.00000000 0.00000000 15.00000000" energy_frozen_part=0.00000000 Properties=species:S:1:pos:R:3:velocities:R:3:Z:I:1
H         9.25029134      12.67047865      14.30315695         0.00000000       0.00000000       0.00000000          1
H         2.03915677       1.42095948       1.88666609         0.00000000       0.00000000       0.00000000          1
H        11.26083990      11.32119190       9.11343611         0.00000000       0.00000000       0.00000000          1
H         0.18891043      13.47673994       7.64120787         0.00000000       0.00000000       0.00000000          1
H        14.41559344      14.89263418      14.92912797         0.00000000       0.00000000       0.00000000          1
H         6.89165946       4.11724792       2.60468253         0.00000000       0.00000000       0.00000000          1
6
pbc=[F, F, F] list_num_par=6 energy=-0.01170702 iter=69 frozen=false Lattice="15.00000000 0.00000000 0.00000000 0.00000000 15.00000000 0.00000000 0.00000000 0.00000000 15.00000000" energy_frozen_part=0.00000000 Properties=species:S:1:pos:R:3:velocities:R:3:Z:I:1
H         9.36852018       4.30668763       3.70521661         0.00000000       0.00000000       0.00000000          1
H         3.61299339       6.44549637       7.87776003         0.00000000       0.00000000       0.00000000          1
H        14.15972979      14.71182605       7.40854972         0.00000000       0.00000000       0.00000000          1
H         0.72854177      13.40769940       7.64284255         0.00000000       0.00000000       0.00000000          1
H         0.74974572       4.78507934       1.29627962         0.00000000       0.00000000       0.00000000          1
H        12.55276766       6.35540987       6.31497193         0.00000000       0.00000000       0.00000000          1
6
pbc=[F, F, F] list_num_par=6 energy=-0.01708415 iter=79 frozen=false Lattice="15.00000000 0.00000000 0.00000000 0.00000000 15.00000000 0.00000000 0.00000000 0.00000000 15.00000000" energy_frozen_part=0.00000000 Properties=species:S:1:pos:R:3:velocities:R:3:Z:I:1
H         1.43106793      12.60332695       8.36239971         0.00000000       0.00000000       0.00000000          1
H         3.28728892       2.43602830       7.83597693         0.00000000       0.00000000       0.00000000          1
H         8.91987862       5.78478107       1.50144220         0.00000000       0.00000000       0.00000000          1
H        10.62415593       0.76468069      14.18276600         0.00000000       0.00000000       0.00000000          1
H         0.35684770       0.97000401      12.99850179         0.00000000       0.00000000       0.00000000          1
H         4.79033074       3.02135016      12.39356565         0.00000000       0.00000000       0.00000000          1
6
pbc=[F, F, F] list_num_par=6 energy=-0.01973636 iter=89 frozen=false Lattice="15.00000000 0.00000000 0.00000000 0.00000000 15.00000000 0.00000000 0.00000000 0.00000000 15.00000000" energy_frozen_part=0.00000000 Properties=species:S:1:pos:R:3:velocities:R:3:Z:I:1
H         2.53741571       8.40217197       3.69194531         0.00000000       0.00000000       0.00000000          1
H         6.11970023       0.06192146       4.23929960         0.00000000       0.00000000       0.00000000          1
H         1.95594561      12.48949975       7.87583786         0.00000000       0.00000000       0.00000000          1
H         7.69764693      11.85721828       4.12333591         0.00000000       0.00000000       0.00000000          1
H         5.28246394       9.06889202       8.57469942         0.00000000       0.00000000       0.00000000          1
H         9.88800411       0.54004446       8.83220444         0.00000000       0.00000000       0.00000000          1
6
pbc=[F, F, F] list_num_par=6 energy=-0.03031227 iter=99 frozen=false Lattice="15.00000000 0.00000000 0.00000000 0.00000000 15.00000000 0.00000000 0.00000000 0.00000000 15.00000000" energy_frozen_part=0.00000000 Properties=species:S:1:pos:R:3:velocities:R:3:Z:I:1
H        10.70125794       9.83111632       4.56006451         0.00000000       0.00000000       0.00000000          1
H        13.46165232       0.13325671       0.57202753         0.00000000       0.00000000       0.00000000          1
H         4.18182472       6.61985795       6.18759687         0.00000000       0.00000000       0.00000000          1
H         0.57644479       7.72467447      12.32241363         0.00000000       0.00000000       0.00000000          1
H         2.24312885       2.52439551       5.65909887         0.00000000       0.00000000       0.00000000          1
H         5.44114641       9.47800159       3.23086764         0.00000000       0.00000000       0.00000000          1
6
pbc=[F, F, F] list_num_par=6 energy=-0.03194536 iter=109 frozen=false Lattice="15.00000000 0.00000000 0.00000000 0.00000000 15.00000000 0.00000000 0.00000000 0.00000000 15.00000000" energy_frozen_part=0.00000000 Properties=species:S:1:pos:R:3:velocities:R:3:Z:I:1
H         9.46431830      11.89406841      11.38115076         0.00000000       0.00000000       0.00000000          1
H        12.04832290       8.31887708       7.36105104         0.00000000       0.00000000       0.00000000          1
H         7.11555136       5.25279667       1.99286844         0.00000000       0.00000000       0.00000000          1
H         7.66874768       0.19270780      11.10256599         0.00000000       0.00000000       0.00000000          1
H         2.58280999       0.72876144       6.41424378         0.00000000       0.00000000       0.00000000          1
H         4.53356218       4.24892081       6.06820862         0.00000000       0.00000000       0.00000000          1
6
pbc=[F, F, F] list_num_par=6 energy=-0.03933289 iter=119 frozen=false Lattice="15.00000000 0.00000000 0.00000000 0.00000000 15.00000000 0.00000000 0.00000000 0.00000000 15.00000000" energy_frozen_part=0.00000000 Properties=species:S:1:pos:R:3:velocities:R:3:Z:I:1
H         6.53566886       8.41123432       3.80604350         0.00000000       0.00000000       0.00000000          1
H        11.01453349       1.24958315       3.60808230         0.00000000       0.00000000       0.00000000          1
H         2.16899882       9.21340733       3.21080079         0.00000000       0.00000000       0.00000000          1
H         0.16311762       5.60618414      14.51444783         0.00000000       0.00000000       0.00000000          1
H         5.23771352       5.26774877       5.83859985         0.00000000       0.00000000       0.00000000          1
H         8.08086275      14.07805417       8.31385866         0.00000000       0.00000000       0.00000000          1
6
pbc=[F, F, F] list_num_par=6 energy=-0.04277925 iter=129 frozen=false Lattice="15.00000000 0.00000000 0.00000000 0.00000000 15.00000000 0.00000000 0.00000000 0.00000000 15.00000000" energy_frozen_part=0.00000000 Properties=species:S:1:pos:R:3:velocities:R:3:Z:I:1
H         9.66342578       0.65500487       9.63662815         0.00000000       0.00000000       0.00000000          1
H         4.42429042       5.21087618       6.16771639         0.00000000       0.00000000       0.00000000          1
H        14.68260739       0.96043584       2.76407822         0.00000000       0.00000000       0.00000000          1
H         2.91815216       1.72903275       1.55761009         0.00000000       0.00000000       0.00000000          1
H        10.00895612      10.29895323       9.68398915         0.00000000       0.00000000       0.00000000          1
H         1.60501049       2.24654577       5.28807289         0.00000000       0.00000000       0.00000000          1
6
pbc=[F, F, F] list_num_par=6 energy=-0.04824205 iter=139 frozen=false Lattice="15.00000000 0.00000000 0.00000000 0.00000000 15.00000000 0.00000000 0.00000000 0.00000000 15.00000000" energy_frozen_part=0.00000000 Properties=species:S:1:pos:R:3:velocities:R:3:Z:I:1
H         0.08699755       6.17983712      12.90319101         0.00000000       0.00000000       0.00000000          1
H         5.39102925       7.74924780       5.31924605         0.00000000       0.00000000       0.00000000          1
H         6.88509770       6.30013659      14.82975016         0.00000000       0.00000000       0.00000000          1
H         2.73453223       3.43590472      12.70672372         0.00000000       0.00000000       0.00000000          1
H        12.29715135       4.89240729       6.19875845         0.00000000       0.00000000       0.00000000          1
H         4.31699880       9.04255996       9.56254560         0.00000000       0.00000000       0.00000000          1
6
pbc=[F, F, F] list_num_par=6 energy=-0.05469667 iter=149 frozen=false Lattice="15.00000000 0.00000000 0.00000000 0.00000000 15.00000000 0.00000000 0.00000000 0.00000000 15.00000000" energy_frozen_part=0.00000000 Properties=species:S:1:pos:R:3:velocities:R:3:Z:I:1
H         1.40220011      13.64764837      10.95757344         0.00000000       0.00000000       0.00000000          1
H         3.79184672       3.13156322       9.20901056         0.00000000       0.00000000       0.00000000          1
H        11.06810623       7.06889479       3.50735389         0.00000000       0.00000000       0.00000000          1
H         9.17456328       2.76923145      14.70485687         0.00000000       0.00000000       0.00000000          1
H         0.88838341       5.86230247      11.12245309         0.00000000       0.00000000       0.00000000          1
H         5.71861996       3.66826440      13.34474975         0.00000000       0.00000000       0.00000000          1
6
pbc=[F, F, F] list_num_par=6 energy=-0.06125879 iter=159 frozen=false Lattice="15.00000000 0.00000000 0.00000000 0.00000000 15.00000000 0.00000000 0.00000000 0.00000000 15.00000000" energy_frozen_part=0.00000000 Properties=species:S:1:pos:R:3:velocities:R:3:Z:I:1
H         3.69548269      14.31417149       3.85521488         0.00000000       0.00000000       0.00000000          1
H         9.85295239       2.58294946       7.48975956         0.00000000       0.00000000       0.00000000          1
H        13.06386328      14.45107737       9.59062115         0.00000000       0.00000000       0.00000000          1
H         4.58817159      11.00954906      10.44851498         0.00000000       0.00000000       0.00000000          1
H         4.52635605      14.83532796       0.48617849         0.00000000       0.00000000       0.00000000          1
H        10.12550460       6.26287889       5.32670052         0.00000000       0.00000000       0.00000000          1
6
pbc=[F, F, F] list_num_par=6 energy=-0.06512457 iter=169 frozen=false Lattice="15.00000000 0.00000000 0.00000000 0.00000000 15.00000000 0.00000000 0.00000000 0.00000000 15.00000000" energy_frozen_part=0.00000000 Properties=species:S:1:pos:R:3:velocities:R:3:Z:I:1
H        13.34870592       6.74596609      12.58952115         0.00000000       0.00000000       0.00000000          1
H         0.93630358       3.79684216       3.46911788         0.00000000       0.00000000       0.00000000          1
H         1.36623256       6.25584766      13.82816152         0.00000000       0.00000000       0.00000000          1
H        13.72852929       8.07898521       9.60171233         0.00000000       0.00000000       0.00000000          1
H        11.48408945      12.94375496       7.60564370         0.00000000       0.00000000       0.00000000          1
H         9.08447268       2.00698735       6.66322003         0.00000000       0.00000000       0.00000000          1
6
pbc=[F, F, F] list_num_par=6 energy=-0.07471897 iter=179 frozen=false Lattice="15.00000000 0.00000000 0.00000000 0.00000000 15.00000000 0.00000000 0.00000000 0.00000000 15.00000000" energy_frozen_part=0.00000000 Properties=species:S:1:pos:R:3:velocities:R:3:Z:I:1
H         2.99502073       1.29723864       8.04547676         0.00000000       0.00000000       0.00000000          1
H         8.44205116      11.92387908      13.49622964         0.00000000       0.00000000       0.00000000          1
H         6.04822500      11.46408292      12.55034135         0.00000000       0.00000000       0.00000000          1
H         8.76573337       2.27029971      13.85121162         0.00000000       0.00000000       0.00000000          1
H         9.60024038       6.56093722       8.74939943         0.00000000       0.00000000       0.00000000          1
H        13.22893848       7.27144886       0.83858726         0.00000000       0.00000000       0.00000000          1
6
pbc=[F, F, F] list_num_par=6 energy=-0.08258381 iter=189 frozen=false Lattice="15.00000000 0.00000000 0.00000000 0.00000000 15.00000000 0.00000000 0.00000000 0.00000000 15.00000000" energy_frozen_part=0.00000000 Properties=species:S:1:pos:R:3:velocities:R:3:Z:I:1
H         9.13846294       1.96509754      10.66636540         0.00000000       0.00000000       0.00000000          1
H         4.01094474      12.16206125      11.83796517         0.00000000       0.00000000       0.00000000          1
H        11.62083316       4.92577511      12.55481688         0.00000000       0.00000000       0.00000000          1
H         3.95122361      12.35875125       6.31101312         0.00000000       0.00000000       0.00000000          1
H         6.21514240       0.48569102      10.82233638         0.00000000       0.00000000       0.00000000          1
H         0.07684119       6.79542136       6.03441133         0.00000000       0.00000000       0.00000000          1
6
pbc=[F, F, F] list_num_par=6 energy=-0.08894217 iter=199 frozen=false Lattice="15.00000000 0.00000000 0.00000000 0.00000000 15.00000000 0.00000000 0.00000000 0.00000000 15.00000000" energy_frozen_part=0.00000000 Properties=species:S:1:pos:R:3:velocities:R:3:Z:I:1
H        11.32385401      10.86295577       8.86205849         0.00000000       0.00000000       0.00000000          1
H         2.79812193       1.87706478      12.23956743         0.00000000       0.00000000       0.00000000          1
H         0.14863741       4.58066522      11.88310222         0.00000000       0.00000000       0.00000000          1
H        10.54155509       6.43431889       3.47272016         0.00000000       0.00000000       0.00000000          1
H         1.61372391       8.90306607       0.16242070         0.00000000       0.00000000       0.00000000          1
H         3.30513093       5.15279388      10.06794835         0.00000000       0.00000000       0.00000000          1
6
pbc=[F, F, F] list_num_par=6 energy=-0.09252955 iter=209 frozen=false Lattice="15.00000000 0.00000000 0.00000000 0.00000000 15.00000000 0.00000000 0.00000000 0.00000000 15.00000000" energy_frozen_part=0.00000000 Properties=species:S:1:pos:R:3:velocities:R:3:Z:I:1
H         2.64920385       3.28279326      11.80044335         0.00000000       0.00000000       0.00000000          1
H         3.38886531       8.47473055      12.81096056         0.00000000       0.00000000       0.00000000          1
H         6.29239620       0.99330357       5.08770367         0.00000000       0.00000000       0.00000000          1
H         9.32008834       4.04916971       7.42567294         0.00000000       0.00000000       0.00000000          1
H         3.97108908       1.29450982       9.65848235         0.00000000       0.00000000       0.00000000          1
H        14.06591061       2.43198222       5.82857007         0.00000000       0.00000000       0.00000000          1
6
pbc=[F, F, F] list_num_par=6 energy=-0.09391331 iter=219 frozen=false Lattice="15.00000000 0.00000000 0.00000000 0.00000000 15.00000000 0.00000000 0.00000000 0.00000000 15.00000000" energy_frozen_part=0.00000000 Properties=species:S:1:pos:R:3:velocities:R:3:Z:I:1
H         6.20364234       3.02967401      12.48052292         0.00000000       0.00000000       0.00000000          1
H         9.62506485      14.35201429       7.84089429         0.00000000       0.00000000       0.00000000          1
H         2.85701580       5.65512255       0.16078321         0.00000000       0.00000000       0.00000000          1
H         8.27946474       4.16751258       9.65606967         0.00000000       0.00000000       0.00000000          1
H         5.28190668       5.04961540       0.80608091         0.00000000       0.00000000       0.00000000          1
H        13.47836924       0.88898156       7.38487539         0.00000000       0.00000000       0.00000000          1
6
pbc=[F, F, F] list_num_par=6 energy=-0.09668119 iter=229 frozen=false Lattice="15.00000000 0.00000000 0.00000000 0.00000000 15.00000000 0.00000000 0.00000000 0.00000000 15.00000000" energy_frozen_part=0.00000000 Properties=species:S:1:pos:R:3:velocities:R:3:Z:I:1
H         2.57165177       7.55926000       9.82485935         0.00000000       0.00000000       0.00000000          1
H         5.16100986      14.08478736       9.34675556         0.00000000       0.00000000       0.00000000          1
H         6.70201465       1.87840890       1.95717367         0.00000000       0.00000000       0.00000000          1
H         9.35106024      10.65595830      12.62104416         0.00000000       0.00000000       0.00000000          1
H         5.89114525      11.69327707       8.42900031         0.00000000       0.00000000       0.00000000          1
H        10.42213619       4.28035827      10.25410482         0.00000000       0.00000000       0.00000000          1
6
pbc=[F, F, F] list_num_par=6 energy=-0.10084545 iter=239 frozen=false Lattice="15.00000000 0.00000000 0.00000000 0.00000000 15.00000000 0.00000000 0.00000000 0.00000000 15.00000000" energy_frozen_part=0.00000000 Properties=species:S:1:pos:R:3:velocities:R:3:Z:I:1
H         0.64504201       7.02611175       1.32641630         0.00000000       0.00000000       0.00000000          1
H         5.20823989      13.86189588       0.08523206         0.00000000       0.00000000       0.00000000          1
H        11.21510548      10.46097275       0.62653731         0.00000000       0.00000000       0.00000000          1
H         9.19267590       3.92487867       7.68489624         0.00000000       0.00000000       0.00000000          1
H         2.33774840      10.70341204       9.51911023         0.00000000       0.00000000       0.00000000          1
H         9.52622188       6.12338932       6.04062966         0.00000000       0.00000000       0.00000000          1
6
pbc=[F, F, F] list_num_par=6 energy=-0.10327405 iter=249 frozen=false Lattice="15.00000000 0.00000000 0.00000000 0.00000000 15.00000000 0.00000000 0.00000000 0.00000000 15.00000000" energy_frozen_part=0.00000000 Properties=species:S:1:pos:R:3:velocities:R:3:Z:I:1
H        10.90197614       7.53732112       0.48639218         0.00000000       0.00000000       0.00000000          1
H         2.82156019       1.41015777       4.47899388         0.00000000       0.00000000       0.00000000          1
H         2.12579166       0.55903906       1.16374239         0.00000000       0.00000000       0.00000000          1
H        13.24429751       3.27528761       8.77853786         0.00000000       0.00000000       0.00000000          1
H        13.61011144       6.61195570       8.82556037         0.00000000       0.00000000       0.00000000          1
H         1.56596643       7.13469321      10.47167659         0.00000000       0.00000000       0.00000000          1
6
pbc=[F, F, F] list_num_par=6 energy=-0.10500695 iter=259 frozen=false Lattice="15.00000000 0.00000000 0.00000000 0.00000000 15.00000000 0.00000000 0.00000000 0.00000000 15.00000000" energy_frozen_part=0.00000000 Properties=species:S:1:pos:R:3:velocities:R:3:Z:I:1
H         3.44497328       9.72230431       4.68065701         0.00000000       0.00000000       0.00000000          1
H         3.59897004       7.44867626       1.47195707         0.00000000       0.00000000       0.00000000          1
H         6.53723840      10.79014939       8.80732464         0.00000000       0.00000000       0.00000000          1
H        10.65591057       2.91622811       5.10694165         0.00000000       0.00000000       0.00000000          1
H        14.09647613      12.30254628      14.77138541         0.00000000       0.00000000       0.00000000          1
H         2.88990503       4.44690552       0.82034293         0.00000000       0.00000000       0.00000000          1
6
pbc=[F, F, F] list_num_par=6 energy=-0.10703814 iter=269 frozen=false Lattice="15.00000000 0.00000000 0.00000000 0.00000000 15.00000000 0.00000000 0.00000000 0.00000000 15.00000000" energy_frozen_part=0.00000000 Properties=species:S:1:pos:R:3:velocities:R:3:Z:I:1
H         7.93442224      10.25643098       8.11853605         0.00000000       0.00000000       0.00000000          1
H         7.45693481       4.34154865       9.48899013         0.00000000       0.00000000       0.00000000          1
H         8.03179164       1.63846397      10.26106514         0.00000000       0.00000000       0.00000000          1
H        11.52688547       8.12882753       4.31353803         0.00000000       0.00000000       0.00000000          1
H        10.86075645       4.91614476      14.61591661         0.00000000       0.00000000       0.00000000          1
H         0.49842802       1.69879721       2.63770052         0.00000000       0.00000000       0.00000000          1
6
pbc=[F, F, F] list_num_par=6 energy=-0.10895007 iter=279 frozen=false Lattice="15.00000000 0.00000000 0.00000000 0.00000000 15.00000000 0.00000000 0.00000000 0.00000000 15.00000000" energy_frozen_part=0.00000000 Properties=species:S:1:pos:R:3:velocities:R:3:Z:I:1
H         3.77806563       9.41938164       7.30099890         0.00000000       0.00000000       0.00000000          1
H         7.07313149      14.23174496       5.62577626         0.00000000       0.00000000       0.00000000          1
H        10.45796594       9.97321555       1.74689013         0.00000000       0.00000000       0.00000000          1
H         8.11007993       1.04959646       5.31456964         0.00000000       0.00000000       0.00000000          1
H         5.49205649      10.82602630       9.15760301         0.00000000       0.00000000       0.00000000          1
H        11.36372940       4.12516326       8.50270751         0.00000000       0.00000000       0.00000000          1
6
pbc=[F, F, F] list_num_par=6 energy=-0.11133647 iter=289 frozen=false Lattice="15.00000000 0.00000000 0.00000000 0.00000000 15.00000000 0.00000000 0.00000000 0.00000000 15.00000000" energy_frozen_part=0.00000000 Properties=species:S:1:pos:R:3:velocities:R:3:Z:I:1
H         5.03432654       8.15197662      11.75894654         0.00000000       0.00000000       0.00000000          1
H         6.14627525      14.43695304       8.34392790         0.00000000       0.00000000       0.00000000          1
H         0.48381088      11.19940738      10.37229199         0.00000000       0.00000000       0.00000000          1
H         5.70919995       6.35123751       9.10620726         0.00000000       0.00000000       0.00000000          1
H        10.87604151      13.78501605      11.83955102         0.00000000       0.00000000       0.00000000          1
H        11.78945188      14.25272154       8.34895205         0.00000000       0.00000000       0.00000000          1
6
pbc=[F, F, F] list_num_par=6 energy=-0.11357779 iter=299 frozen=false Lattice="15.00000000 0.00000000 0.00000000 0.00000000 15.00000000 0.00000000 0.00000000 0.00000000 15.00000000" energy_frozen_part=0.00000000 Properties=species:S:1:pos:R:3:velocities:R:3:Z:I:1
H         8.90785830      14.22107835       0.68591159         0.00000000       0.00000000       0.00000000          1
H        14.35618966       8.01766672       3.57410786         0.00000000       0.00000000       0.00000000          1
H         5.71655910      14.65289474      13.28109819         0.00000000       0.00000000       0.00000000          1
H         3.60983199      10.69566775       2.06835315         0.00000000       0.00000000       0.00000000          1
H        11.19825810      14.67866075       3.27106877         0.00000000       0.00000000       0.00000000          1
H         3.05569735       7.82872243       0.61225110         0.00000000       0.00000000       0.00000000          1
6
pbc=[F, F, F] list_num_par=6 energy=-0.11587928 iter=309 frozen=false Lattice="15.00000000 0.00000000 0.00000000 0.00000000 15.00000000 0.00000000 0.00000000 0.00000000 15.00000000" energy_frozen_part=0.00000000 Properties=species:S:1:pos:R:3:velocities:R:3:Z:I:1
H         3.70829057      13.44806976      13.87614276         0.00000000       0.00000000       0.00000000          1
H         7.37911006      13.57254708       8.17449201         0.00000000       0.00000000       0.00000000          1