6
pbc=[F, F, F] list_num_par=6 energy=3.65007166 iter=9 frozen=false Lattice="15.00000000 0.00000000 0.00000000 0.00000000 15.00000000 0.00000000 0.00000000 0.00000000 15.00000000" energy_frozen_part=0.00000000 Properties=species:S:1:pos:R:3:velocities:R:3:Z:I:1
H         8.36463569      11.85447561       0.69912230         0.00000000       0.00000000       0.00000000          1
H        13.45013818      13.83285240       7.98265836         0.00000000       0.00000000       0.00000000          1
H        12.39585098      14.00092298       9.70015787         0.00000000       0.00000000       0.00000000          1
H        11.99812615       9.79323893      11.36227017         0.00000000       0.00000000       0.00000000          1
H         5.35841065       9.96359865       4.63788801         0.00000000       0.00000000       0.00000000          1
H         7.60674584       0.92505361       5.38452698         0.00000000       0.00000000       0.00000000          1
6
pbc=[F, F, F] list_num_par=6 energy=0.01200217 iter=19 frozen=false Lattice="15.00000000 0.00000000 0.00000000 0.00000000 15.00000000 0.00000000 0.00000000 0.00000000 15.00000000" energy_frozen_part=0.00000000 Properties=species:S:1:pos:R:3:velocities:R:3:Z:I:1
H        13.53082037       2.89846070      10.23108947         0.00000000       0.00000000       0.00000000          1
H         0.98611525       1.16686491      11.34855264         0.00000000       0.00000000       0.00000000          1
H         9.84914768      14.23684860      13.92489550         0.00000000       0.00000000       0.00000000          1
H        14.34374246       6.82822851      14.30926726         0.00000000       0.00000000       0.00000000          1
H         8.39469932      14.88094633      12.06582672         0.00000000       0.00000000       0.00000000          1
H         0.53199182       0.81495107      14.76934083         0.00000000       0.00000000       0.00000000          1
6
pbc=[F, F, F] list_num_par=6 energy=-0.00458770 iter=29 frozen=false Lattice="15.00000000 0.00000000 0.00000000 0.00000000 15.00000000 0.00000000 0.00000000 0.00000000 15.00000000" energy_frozen_part=0.00000000 Properties=species:S:1:pos:R:3:velocities:R:3:Z:I:1
H         6.56957293       6.46134631       8.32387097         0.00000000       0.00000000       0.00000000          1
H         5.35089858      12.90369170      13.09204861         0.00000000       0.00000000       0.00000000          1
H         7.14583484       6.09224876      13.78398752         0.00000000       0.00000000       0.00000000          1
H        14.75146649       9.93361739       3.04400186         0.00000000       0.00000000       0.00000000          1
H         1.40151965      12.16869710       1.34003882         0.00000000       0.00000000       0.00000000          1
H        14.98422371       9.30863827      11.79140336         0.00000000       0.00000000       0.00000000          1
6
pbc=[F, F, F] list_num_par=6 energy=-0.00772203 iter=39 frozen=false Lattice="15.00000000 0.00000000 0.00000000 0.00000000 15.00000000 0.00000000 0.00000000 0.00000000 15.00000000" energy_frozen_part=0.00000000 Properties=species:S:1:pos:R:3:velocities:R:3:Z:I:1
H         1.87050774       2.59476115       2.46783856         0.00000000       0.00000000       0.00000000          1
H         1.49245212       0.49208630       9.00895652         0.00000000       0.00000000       0.00000000          1
H         1.84597173       0.32356873      14.42573124         0.00000000       0.00000000       0.00000000          1
H        14.55243516       4.27287163      13.77399468         0.00000000       0.00000000       0.00000000          1
H         6.50830817       3.28967886       8.66732951         0.00000000       0.00000000       0.00000000          1
H         6.60994142      14.52955191      12.94675273         0.00000000       0.00000000       0.00000000          1
6
pbc=[F, F, F] list_num_par=6 energy=-0.01129077 iter=49 frozen=false Lattice="15.00000000 0.00000000 0.00000000 0.00000000 15.00000000 0.00000000 0.00000000 0.00000000 15.00000000" energy_frozen_part=0.00000000 Properties=species:S:1:pos:R:3:velocities:R:3:Z:I:1
H         9.39166543      14.63000955       1.63273182         0.00000000       0.00000000       0.00000000          1
H        14.00253161       5.74435255       8.00510715         0.00000000       0.00000000       0.00000000          1
H        12.35030100      14.52856757      14.81795824         0.00000000       0.00000000       0.00000000          1
H         8.42847059       4.85964569      12.11994671         0.00000000       0.00000000       0.00000000          1
H        11.49436063       0.60573853       8.56443671         0.00000000       0.00000000       0.00000000          1
H         4.51061464      14.70434257       0.90403588         0.00000000       0.00000000       0.00000000          1
6
pbc=[F, F, F] list_num_par=6 energy=-0.01675187 iter=59 frozen=false Lattice="15.00000000 0.00000000 0.00000000 0.00000000 15.00000000 0.00000000 0.00000000 0.00000000 15.00000000" energy_frozen_part=0.00000000 Properties=species:S:1:pos:R:3:velocities:R:3:Z:I:1
H         8.99330610       6.78393752       2.29458801         0.00000000       0.00000000       0.00000000          1
H        10.12931440       4.54792421       7.99958725         0.00000000       0.00000000       0.00000000          1
H         1.47010379       8.74302513       6.61986663         0.00000000       0.00000000       0.00000000          1
H        10.44601426      10.16849318       6.72231977         0.00000000       0.00000000       0.00000000          1
H         7.82633082      11.84055102      11.68384489         0.00000000       0.00000000       0.00000000          1
H        14.27614793       2.52841577       9.51675329         0.00000000       0.00000000       0.00000000          1
6
pbc=[F, F, F] list_num_par=6 energy=-0.02360947 iter=69 frozen=false Lattice="15.00000000 0.00000000 0.00000000 0.00000000 15.00000000 0.00000000 0.00000000 0.00000000 15.00000000" energy_frozen_part=0.00000000 Properties=species:S:1:pos:R:3:velocities:R:3:Z:I:1
H         4.06826315       8.99671664      14.17270798         0.00000000       0.00000000       0.00000000          1
H         5.01028101       9.32458148       0.28798400         0.00000000       0.00000000       0.00000000          1
H         5.45470255       6.82999620       3.96627197         0.00000000       0.00000000       0.00000000          1
H         4.08763458      12.03215006       5.33338041         0.00000000       0.00000000       0.00000000          1
H        13.60648483       5.62627733       9.41521336         0.00000000       0.00000000       0.00000000          1
H         0.20976649       5.82623701      14.39583920         0.00000000       0.00000000       0.00000000          1
6
pbc=[F, F, F] list_num_par=6 energy=-0.03198686 iter=79 frozen=false Lattice="15.00000000 0.00000000 0.00000000 0.00000000 15.00000000 0.00000000 0.00000000 0.00000000 15.00000000" energy_frozen_part=0.00000000 Properties=species:S:1:pos:R:3:velocities:R:3:Z:I:1
H        14.06167424       7.12274614       5.58056590         0.00000000       0.00000000       0.00000000          1
H         8.37637609       0.51730255      14.63022368         0.00000000       0.00000000       0.00000000          1
H         4.69323606       9.37763838       6.96991136         0.00000000       0.00000000       0.00000000          1
H         5.83450546       1.44914814      11.54284118         0.00000000       0.00000000       0.00000000          1
H         5.69553310      14.62150836       4.86636725         0.00000000       0.00000000       0.00000000          1
H         4.22426843       3.43799929       7.50426217         0.00000000       0.00000000       0.00000000          1
6
pbc=[F, F, F] list_num_par=6 energy=-0.03806247 iter=89 frozen=false Lattice="15.00000000 0.00000000 0.00000000 0.00000000 15.00000000 0.00000000 0.00000000 0.00000000 15.00000000" energy_frozen_part=0.00000000 Properties=species:S:1:pos:R:3:velocities:R:3:Z:I:1
H        11.95135289       4.92200563      13.99696366         0.00000000       0.00000000       0.00000000          1
H        12.54071796      11.26258546       0.94941911         0.00000000       0.00000000       0.00000000          1
H         4.56829654      13.07285506       5.85094109         0.00000000       0.00000000       0.00000000          1
H         5.99524507      13.22534763       2.44179574         0.00000000       0.00000000       0.00000000          1
H         5.25773923       5.93856099       1.90149947         0.00000000       0.00000000       0.00000000          1
H         6.74814411       6.24495146      11.27549671         0.00000000       0.00000000       0.00000000          1
6
pbc=[F, F, F] list_num_par=6 energy=-0.04127245 iter=99 frozen=false Lattice="15.00000000 0.00000000 0.00000000 0.00000000 15.00000000 0.00000000 0.00000000 0.00000000 15.00000000" energy_frozen_part=0.00000000 Properties=species:S:1:pos:R:3:velocities:R:3:Z:I:1
H         5.65022578      10.40641658       5.26254311         0.00000000       0.00000000       0.00000000          1
H         7.53292362      11.55730751       0.04675417         0.00000000       0.00000000       0.00000000          1
H         9.83872981      14.83428525       6.42342059         0.00000000       0.00000000       0.00000000          1
H        11.04881647       7.18062130       2.51854076         0.00000000       0.00000000       0.00000000          1
H         5.86444853       7.64443712       1.40381969         0.00000000       0.00000000       0.00000000          1
H         1.63346927      12.76593208       5.84128711         0.00000000       0.00000000       0.00000000          1
6
pbc=[F, F, F] list_num_par=6 energy=-0.04676281 iter=109 frozen=false Lattice="15.00000000 0.00000000 0.00000000 0.00000000 15.00000000 0.00000000 0.00000000 0.00000000 15.00000000" energy_frozen_part=0.00000000 Properties=species:S:1:pos:R:3:velocities:R:3:Z:I:1
H         2.93096776      10.99474558       4.54433744         0.00000000       0.00000000       0.00000000          1
H         4.91870473       4.57264927       7.64268466         0.00000000       0.00000000       0.00000000          1
H         2.95807896       9.40704869      10.75303817         0.00000000       0.00000000       0.00000000          1
H        12.45298390       1.75195094      10.70723481         0.00000000       0.00000000       0.00000000          1
H         6.01515526       9.96751296       8.76786234         0.00000000       0.00000000       0.00000000          1
H         0.27887340       4.41798700       1.90887892         0.00000000       0.00000000       0.00000000          1
6
pbc=[F, F, F] list_num_par=6 energy=-0.05585023 iter=119 frozen=false Lattice="15.00000000 0.00000000 0.00000000 0.00000000 15.00000000 0.00000000 0.00000000 0.00000000 15.00000000" energy_frozen_part=0.00000000 Properties=species:S:1:pos:R:3:velocities:R:3:Z:I:1
H         1.47907459       4.55766914      13.11522079         0.00000000       0.00000000       0.00000000          1
H         0.57289304       8.76309923      12.38497110         0.00000000       0.00000000       0.00000000          1
H         6.64967650       0.28737048       8.16057201         0.00000000       0.00000000       0.00000000          1
H        14.81873211       5.76100107       5.91925688         0.00000000       0.00000000       0.00000000          1
H        10.22990956       0.85804209       2.57320210         0.00000000       0.00000000       0.00000000          1
H         7.81463614       2.96785354      10.26521703         0.00000000       0.00000000       0.00000000          1
6
pbc=[F, F, F] list_num_par=6 energy=-0.06206635 iter=129 frozen=false Lattice="15.00000000 0.00000000 0.00000000 0.00000000 15.00000000 0.00000000 0.00000000 0.00000000 15.00000000" energy_frozen_part=0.00000000 Properties=species:S:1:pos:R:3:velocities:R:3:Z:I:1
H         2.39565720       3.16508691       6.44367956         0.00000000       0.00000000       0.00000000          1
H         2.57117274      12.68147637      10.08832817         0.00000000       0.00000000       0.00000000          1
H         7.49677476      12.94055148      14.56693491         0.00000000       0.00000000       0.00000000          1
H         0.60356226       7.13466213       5.15283137         0.00000000       0.00000000       0.00000000          1
H         6.15534127      14.00645636       4.86766642         0.00000000       0.00000000       0.00000000          1
H         2.39920178       1.40830335       3.43538024         0.00000000       0.00000000       0.00000000          1
6
pbc=[F, F, F] list_num_par=6 energy=-0.06836733 iter=139 frozen=false Lattice="15.00000000 0.00000000 0.00000000 0.00000000 15.00000000 0.00000000 0.00000000 0.00000000 15.00000000" energy_frozen_part=0.00000000 Properties=species:S:1:pos:R:3:velocities:R:3:Z:I:1
H         9.63620275       2.46281151       3.77870822         0.00000000       0.00000000       0.00000000          1
H         6.80348704       7.43264206       8.22506319         0.00000000       0.00000000       0.00000000          1
H         1.24088700      14.12877514       0.66559283         0.00000000       0.00000000       0.00000000          1
H         0.62663249       0.25157127       5.94266484         0.00000000       0.00000000       0.00000000          1
H         0.71758389       0.75169661       0.92765648         0.00000000       0.00000000       0.00000000          1
H         8.15408308       0.88606693       6.27840857         0.00000000       0.00000000       0.00000000          1
6
pbc=[F, F, F] list_num_par=6 energy=-0.07372623 iter=149 frozen=false Lattice="15.00000000 0.00000000 0.00000000 0.00000000 15.00000000 0.00000000 0.00000000 0.00000000 15.00000000" energy_frozen_part=0.00000000 Properties=species:S:1:pos:R:3:velocities:R:3:Z:I:1
H         2.10205259       3.32427171       6.37981719         0.00000000       0.00000000       0.00000000          1
H         2.34702716      12.63518770      10.23478102         0.00000000       0.00000000       0.00000000          1
H         7.60147237      12.83061686      14.98876335         0.00000000       0.00000000       0.00000000          1
H         0.35999083       6.99361552       4.97415041         0.00000000       0.00000000       0.00000000          1
H         6.33512855      13.96486849       4.71674682         0.00000000       0.00000000       0.00000000          1
H         2.19714636       1.52207886       3.52762494         0.00000000       0.00000000       0.00000000          1
6
pbc=[F, F, F] list_num_par=6 energy=-0.07894297 iter=159 frozen=false Lattice="15.00000000 0.00000000 0.00000000 0.00000000 15.00000000 0.00000000 0.00000000 0.00000000 15.00000000" energy_frozen_part=0.00000000 Properties=species:S:1:pos:R:3:velocities:R:3:Z:I:1
H        11.77051726       7.55936982       5.17669417         0.00000000       0.00000000       0.00000000          1
H        13.11417470       7.96741578      14.21889932         0.00000000       0.00000000       0.00000000          1
H        10.54439779      11.76357727       3.85402443         0.00000000       0.00000000       0.00000000          1
H         0.70769331       5.99916092       4.35635840         0.00000000       0.00000000       0.00000000          1
H         9.83801366       4.96975861       5.20482994         0.00000000       0.00000000       0.00000000          1
H         3.10672652       0.05013193       8.46587402         0.00000000       0.00000000       0.00000000          1
6
pbc=[F, F, F] list_num_par=6 energy=-0.08238898 iter=169 frozen=false Lattice="15.00000000 0.00000000 0.00000000 0.00000000 15.00000000 0.00000000 0.00000000 0.00000000 15.00000000" energy_frozen_part=0.00000000 Properties=species:S:1:pos:R:3:velocities:R:3:Z:I:1
H         6.13471861      10.97337601       1.58047274         0.00000000       0.00000000       0.00000000          1
H        12.90173458      14.49499976      12.60073154         0.00000000       0.00000000       0.00000000          1
H        10.22433714      12.84580823       2.99985262         0.00000000       0.00000000       0.00000000          1
H        11.74907269       9.66747372      11.33755593         0.00000000       0.00000000       0.00000000          1
H         8.68604912      12.45542525       5.88627381         0.00000000       0.00000000       0.00000000          1
H         1.40491724      13.48735309       6.73641700         0.00000000       0.00000000       0.00000000          1
6
pbc=[F, F, F] list_num_par=6 energy=-0.08925791 iter=179 frozen=false Lattice="15.00000000 0.00000000 0.00000000 0.00000000 15.00000000 0.00000000 0.00000000 0.00000000 15.00000000" energy_frozen_part=0.00000000 Properties=species:S:1:pos:R:3:velocities:R:3:Z:I:1
H        11.27390058       6.26182769      11.25157727         0.00000000       0.00000000       0.00000000          1
H         3.19091683       7.10861489       5.85056669         0.00000000       0.00000000       0.00000000          1
H         9.34583365       8.41927310      13.53419977         0.00000000       0.00000000       0.00000000          1
H         0.93441055       3.23101745       1.01804665         0.00000000       0.00000000       0.00000000          1
H         0.88170013       0.28647040      10.20951699         0.00000000       0.00000000       0.00000000          1
H         1.39939798       2.21597745       7.37077517         0.00000000       0.00000000       0.00000000          1
6
pbc=[F, F, F] list_num_par=6 energy=-0.09281779 iter=189 frozen=false Lattice="15.00000000 0.00000000 0.00000000 0.00000000 15.00000000 0.00000000 0.00000000 0.00000000 15.00000000" energy_frozen_part=0.00000000 Properties=species:S:1:pos:R:3:velocities:R:3:Z:I:1
H        12.04381449      10.72100456       6.29843239         0.00000000       0.00000000       0.00000000          1
H         3.21193525       4.14493273      13.53567473         0.00000000       0.00000000       0.00000000          1
H         9.53291308       1.85798819      13.50905695         0.00000000       0.00000000       0.00000000          1
H         5.96906138       9.85970443       4.21361257         0.00000000       0.00000000       0.00000000          1
H         4.70230082      11.66472500       2.12848076         0.00000000       0.00000000       0.00000000          1
H         9.28731175       3.81053400       8.46754398         0.00000000       0.00000000       0.00000000          1
6
pbc=[F, F, F] list_num_par=6 energy=-0.09742242 iter=199 frozen=false Lattice="15.00000000 0.00000000 0.00000000 0.00000000 15.00000000 0.00000000 0.00000000 0.00000000 15.00000000" energy_frozen_part=0.00000000 Properties=species:S:1:pos:R:3:velocities:R:3:Z:I:1
H        13.20094437       7.73417034      12.82371131         0.00000000       0.00000000       0.00000000          1
H        11.31334721      12.28710428      10.06471518         0.00000000       0.00000000       0.00000000          1
H         5.17501805       3.25594908       3.95296797         0.00000000       0.00000000       0.00000000          1
H        14.87799392       8.45840240       0.19760198         0.00000000       0.00000000       0.00000000          1
H        14.62518762       3.35627879       8.01199703         0.00000000       0.00000000       0.00000000          1
H        10.32290839      10.89820564       7.64393656         0.00000000       0.00000000       0.00000000          1
6
pbc=[F, F, F] list_num_par=6 energy=-0.09981964 iter=209 frozen=false Lattice="15.00000000 0.00000000 0.00000000 0.00000000 15.00000000 0.00000000 0.00000000 0.00000000 15.00000000" energy_frozen_part=0.00000000 Properties=species:S:1:pos:R:3:velocities:R:3:Z:I:1
H         3.08090482      11.29719688       3.58440299         0.00000000       0.00000000       0.00000000          1
H        12.88128010       5.43871424       3.73729896         0.00000000       0.00000000       0.00000000          1
H        14.05723954      10.07469683       5.69404305         0.00000000       0.00000000       0.00000000          1
H        10.38755426      13.84013344      13.39678486         0.00000000       0.00000000       0.00000000          1
H         5.67050028      11.95874688       3.97304728         0.00000000       0.00000000       0.00000000          1
H        10.84064325       0.46434497       0.40103793         0.00000000       0.00000000       0.00000000          1
6
pbc=[F, F, F] list_num_par=6 energy=-0.10268330 iter=219 frozen=false Lattice="15.00000000 0.00000000 0.00000000 0.00000000 15.00000000 0.00000000 0.00000000 0.00000000 15.00000000" energy_frozen_part=0.00000000 Properties=species:S:1:pos:R:3:velocities:R:3:Z:I:1
H        14.28938112       5.99495450       1.00065590         0.00000000       0.00000000       0.00000000          1
H         0.57652707       9.69804387      11.84593118         0.00000000       0.00000000       0.00000000          1
H        14.38844059      13.00713902       6.93751822         0.00000000       0.00000000       0.00000000          1
H         1.56837786       6.48169442       9.49354060         0.00000000       0.00000000       0.00000000          1
H         1.55529837      12.13882908      11.70688635         0.00000000       0.00000000       0.00000000          1
H        10.96413130       7.90192620       5.85283983         0.00000000       0.00000000       0.00000000          1
6
pbc=[F, F, F] list_num_par=6 energy=-0.10707953 iter=229 frozen=false Lattice="15.00000000 0.00000000 0.00000000 0.00000000 15.00000000 0.00000000 0.00000000 0.00000000 15.00000000" energy_frozen_part=0.00000000 Properties=species:S:1:pos:R:3:velocities:R:3:Z:I:1
H         5.82523167      14.09565080       0.72959711         0.00000000       0.00000000       0.00000000          1
H        11.27400625      13.63615311       9.94554251         0.00000000       0.00000000       0.00000000          1
H         9.31395727      13.10480528       3.66905507         0.00000000       0.00000000       0.00000000          1
H        14.17631399      13.67396401       9.42746659         0.00000000       0.00000000       0.00000000          1
H         6.53115851       9.17357830       7.10382028         0.00000000       0.00000000       0.00000000          1
H         6.63776552       1.60150773       0.26218317         0.00000000       0.00000000       0.00000000          1
6
pbc=[F, F, F] list_num_par=6 energy=-0.10884691 iter=239 frozen=false Lattice="15.00000000 0.00000000 0.00000000 0.00000000 15.00000000 0.00000000 0.00000000 0.00000000 15.00000000" energy_frozen_part=0.00000000 Properties=species:S:1:pos:R:3:velocities:R:3:Z:I:1
H        12.78873205      12.33402463       1.89839866         0.00000000       0.00000000       0.00000000          1
H         7.14169708      14.19050102      14.82732287         0.00000000       0.00000000       0.00000000          1
H         2.88300950       8.54539657       3.97617144         0.00000000       0.00000000       0.00000000          1
H         3.72546129       9.89773430      12.51943738         0.00000000       0.00000000       0.00000000          1
H         2.34740255      10.30142378       1.82067431         0.00000000       0.00000000       0.00000000          1
H         6.29110238      11.13210643       7.39475150         0.00000000       0.00000000       0.00000000          1
6
pbc=[F, F, F] list_num_par=6 energy=-0.11217325 iter=249 frozen=false Lattice="15.00000000 0.00000000 0.00000000 0.00000000 15.00000000 0.00000000 0.00000000 0.00000000 15.00000000" energy_frozen_part=0.00000000 Properties=species:S:1:pos:R:3:velocities:R:3:Z:I:1
H         3.23706700      11.99986759       4.29266315         0.00000000       0.00000000       0.00000000          1
H         9.19306200       9.78605018       3.79502649         0.00000000       0.00000000       0.00000000          1
H        11.44090411       2.11574711       6.55900280         0.00000000       0.00000000       0.00000000          1
H        11.09091172       6.00995544       9.59898907         0.00000000       0.00000000       0.00000000          1
H         5.74663002      13.46343017       4.44429633         0.00000000       0.00000000       0.00000000          1
H        12.73101302      14.21073706       1.30968281         0.00000000       0.00000000       0.00000000          1
6
pbc=[F, F, F] list_num_par=6 energy=-0.11474515 iter=259 frozen=false Lattice="15.00000000 0.00000000 0.00000000 0.00000000 15.00000000 0.00000000 0.00000000 0.00000000 15.00000000" energy_frozen_part=0.00000000 Properties=species:S:1:pos:R:3:velocities:R:3:Z:I:1
H         3.27920265       4.11404499      10.80910445         0.00000000       0.00000000       0.00000000          1
H         6.26400370      12.97073918       0.01940394         0.00000000       0.00000000       0.00000000          1
H         4.59621043      10.43571916       0.59583192         0.00000000       0.00000000       0.00000000          1
H         6.64138931       4.36172868       9.21365308         0.00000000       0.00000000       0.00000000          1
H        14.97470600      12.30031848      14.55149058         0.00000000       0.00000000       0.00000000          1
H        12.68371472       2.10206774      10.59749807         0.00000000       0.00000000       0.00000000          1
6
pbc=[F, F, F] list_num_par=6 energy=-0.11897656 iter=269 frozen=false Lattice="15.00000000 0.00000000 0.00000000 0.00000000 15.00000000 0.00000000 0.00000000 0.00000000 15.00000000" energy_frozen_part=0.00000000 Properties=species:S:1:pos:R:3:velocities:R:3:Z:I:1
H         7.86663436       2.08279498       7.27734414         0.00000000       0.00000000       0.00000000          1
H         8.92358056       8.11511028       9.50231070         0.00000000       0.00000000       0.00000000          1
H        13.99114434      11.73995152      11.08001323         0.00000000       0.00000000       0.00000000          1
H         8.75805074       5.85735052       7.46007955         0.00000000       0.00000000       0.00000000          1
H         3.14025475       6.77981680      10.14495498         0.00000000       0.00000000       0.00000000          1
H         0.18514627       2.13997982      13.32204075         0.00000000       0.00000000       0.00000000          1
6
pbc=[F, F, F] list_num_par=6 energy=-0.12392429 iter=279 frozen=false Lattice="15.00000000 0.00000000 0.00000000 0.00000000 15.00000000 0.00000000 0.00000000 0.00000000 15.00000000" energy_frozen_part=0.00000000 Properties=species:S:1:pos:R:3:velocities:R:3:Z:I:1
H        12.64999733       0.17982781       1.01264263         0.00000000       0.00000000       0.00000000          1
H        12.69229393       3.42212042       5.16636138         0.00000000       0.00000000       0.00000000          1
H        14.43892059       3.16688639       1.68103191         0.00000000       0.00000000       0.00000000          1
H         1.59356651       2.88165212       4.36128335         0.00000000       0.00000000       0.00000000          1
H        14.86444131       0.18582467       4.86055747         0.00000000       0.00000000       0.00000000          1
H         0.57809122      10.53370996       8.70858143         0.00000000       0.00000000       0.00000000          1
6
pbc=[F, F, F] list_num_par=6 energy=-0.13057096 iter=289 frozen=false Lattice="15.00000000 0.00000000 0.00000000 0.00000000 15.00000000 0.00000000 0.00000000 0.00000000 15.00000000" energy_frozen_part=0.00000000 Properties=species:S:1:pos:R:3:velocities:R:3:Z:I:1
H        11.76361341       0.75979778       2.42674841         0.00000000       0.00000000       0.00000000          1
H         3.92861502       9.52310470       5.83143963         0.00000000       0.00000000       0.00000000          1
H        10.71541833       1.57610977       4.83425139         0.00000000       0.00000000       0.00000000          1
H         8.18732255       2.96482585       0.20581562         0.00000000       0.00000000       0.00000000          1
H         7.08801641      12.01866577       4.81213332         0.00000000       0.00000000       0.00000000          1
H         4.57580620      14.90656825       0.29828736         0.00000000       0.00000000       0.00000000          1
6
pbc=[F, F, F] list_num_par=6 energy=-0.13354328 iter=299 frozen=false Lattice="15.00000000 0.00000000 0.00000000 0.00000000 15.00000000 0.00000000 0.00000000 0.00000000 15.00000000" energy_frozen_part=0.00000000 Properties=species:S:1:pos:R:3:velocities:R:3:Z:I:1
H        11.57730924       7.00384184       7.79210804         0.00000000       0.00000000       0.00000000          1
H         9.48502628      11.82284314       9.93785927         0.00000000       0.00000000       0.00000000          1
H         4.30477038       8.69814964       2.47856509         0.00000000       0.00000000       0.00000000          1
H        12.60702587      10.76654469       5.28146910         0.00000000       0.00000000       0.00000000          1
H        12.61187327       6.59159156       5.30437488         0.00000000       0.00000000       0.00000000          1
H         8.06788556      14.06713783       3.46071942         0.00000000       0.00000000       0.00000000          1
6
pbc=[F, F, F] list_num_par=6 energy=-0.13783934 iter=309 frozen=false Lattice="15.00000000 0.00000000 0.00000000 0.00000000 15.00000000 0.00000000 0.00000000 0.00000000 15.00000000" energy_frozen_part=0.00000000 Properties=species:S:1:pos:R:3:velocities:R:3:Z:I:1
H        14.03298616       9.46175378       3.59788268         0.00000000       0.00000000       0.00000000          1
H         7.94083680       2.85000330       8.74009482         0.00000000       0.00000000       0.00000000          1