6
pbc=[F, F, F] list_num_par=6 energy=188.56325535 iter=9 frozen=false Lattice="15.00000000 0.00000000 0.00000000 0.00000000 15.00000000 0.00000000 0.00000000 0.00000000 15.00000000" energy_frozen_part=0.00000000 Properties=species:S:1:pos:R:3:velocities:R:3:Z:I:1
H         8.85394248       2.60369912       8.52672081         0.00000000       0.00000000       0.00000000          1
H         9.85359589       1.77710898       0.99799491         0.00000000       0.00000000       0.00000000          1
H         6.17162365       7.78976491      12.29746781         0.00000000       0.00000000       0.00000000          1
H         8.38082710       1.90752351       0.80525723         0.00000000       0.00000000       0.00000000          1
H         6.85211055       8.83744074       1.79648465         0.00000000       0.00000000       0.00000000          1
H        12.87126644       1.00370345      14.44799497         0.00000000       0.00000000       0.00000000          1
6
pbc=[F, F, F] list_num_par=6 energy=1.08784169 iter=19 frozen=false Lattice="15.00000000 0.00000000 0.00000000 0.00000000 15.00000000 0.00000000 0.00000000 0.00000000 15.00000000" energy_frozen_part=0.00000000 Properties=species:S:1:pos:R:3:velocities:R:3:Z:I:1
H        14.75591429       2.11274982       8.34288333         0.00000000       0.00000000       0.00000000          1
H         8.88151444      10.61246399       4.24144205         0.00000000       0.00000000       0.00000000          1
H         0.72060046      11.67478979       7.39570297         0.00000000       0.00000000       0.00000000          1
H         9.89958988       9.46474673       5.79920090         0.00000000       0.00000000       0.00000000          1
H         7.10940641      12.12659971      12.52194893         0.00000000       0.00000000       0.00000000          1
H        11.10755454       3.37842213      10.21982205         0.00000000       0.00000000       0.00000000          1
6
pbc=[F, F, F] list_num_par=6 energy=-0.00247922 iter=29 frozen=false Lattice="15.00000000 0.00000000 0.00000000 0.00000000 15.00000000 0.00000000 0.00000000 0.00000000 15.00000000" energy_frozen_part=0.00000000 Properties=species:S:1:pos:R:3:velocities:R:3:Z:I:1
H        11.71134954      12.95743820       8.34820752         0.00000000       0.00000000       0.00000000          1
H         2.21839269      11.95379583       0.31625454         0.00000000       0.00000000       0.00000000          1
H         9.42174587       7.78674872       1.60261331         0.00000000       0.00000000       0.00000000          1
H         2.24018304       6.80787750       3.91076331         0.00000000       0.00000000       0.00000000          1
H        13.66633002       0.51278481       5.04591557         0.00000000       0.00000000       0.00000000          1
H         4.13946177      14.76379435      10.99614851         0.00000000       0.00000000       0.00000000          1
6
pbc=[F, F, F] list_num_par=6 energy=-0.00366449 iter=39 frozen=false Lattice="15.00000000 0.00000000 0.00000000 0.00000000 15.00000000 0.00000000 0.00000000 0.00000000 15.00000000" energy_frozen_part=0.00000000 Properties=species:S:1:pos:R:3:velocities:R:3:Z:I:1
H         1.75415266       0.27424650       6.81863404         0.00000000       0.00000000       0.00000000          1
H        10.55795137       0.65820604       7.30658568         0.00000000       0.00000000       0.00000000          1
H         4.10764687       6.86486907       1.21857497         0.00000000       0.00000000       0.00000000          1
H        10.24029373      14.72050904       2.15617721         0.00000000       0.00000000       0.00000000          1
H         5.72701370       0.61678220      11.41664714         0.00000000       0.00000000       0.00000000          1
H        10.88309301       6.53981717      14.31508369         0.00000000       0.00000000       0.00000000          1
6
pbc=[F, F, F] list_num_par=6 energy=-0.00649485 iter=49 frozen=false Lattice="15.00000000 0.00000000 0.00000000 0.00000000 15.00000000 0.00000000 0.00000000 0.00000000 15.00000000" energy_frozen_part=0.00000000 Properties=species:S:1:pos:R:3:velocities:R:3:Z:I:1
H         3.18813001       0.71298431      10.56848548         0.00000000       0.00000000       0.00000000          1
H         5.63458521       8.95202634       5.38696010         0.00000000       0.00000000       0.00000000          1
H         7.87994575       0.61087471       4.89164269         0.00000000       0.00000000       0.00000000          1
H         7.63190991       2.17506529      14.11413773         0.00000000       0.00000000       0.00000000          1
H        11.66635473       8.06108877       4.44901984         0.00000000       0.00000000       0.00000000          1
H         0.50062127       6.79899712       2.72472046         0.00000000       0.00000000       0.00000000          1
6
pbc=[F, F, F] list_num_par=6 energy=-0.00781624 iter=59 frozen=false Lattice="15.00000000 0.00000000 0.00000000 0.00000000 15.00000000 0.00000000 0.00000000 0.00000000 15.00000000" energy_frozen_part=0.00000000 Properties=species:S:1:pos:R:3:velocities:R:3:Z:I:1
H         3.63182622       3.82588029      13.06477499         0.00000000       0.00000000       0.00000000          1
H        11.12886129      11.14628843       4.12602197         0.00000000       0.00000000       0.00000000          1
H        10.41026870      13.69607158      10.51930588         0.00000000       0.00000000       0.00000000          1
H         0.28786597       2.09075932       5.25843703         0.00000000       0.00000000       0.00000000          1
H        10.87214563       8.18715091       9.02780310         0.00000000       0.00000000       0.00000000          1
H         5.74142698      13.58193755      14.69871744         0.00000000       0.00000000       0.00000000          1
6
pbc=[F, F, F] list_num_par=6 energy=-0.01075047 iter=69 frozen=false Lattice="15.00000000 0.00000000 0.00000000 0.00000000 15.00000000 0.00000000 0.00000000 0.00000000 15.00000000" energy_frozen_part=0.00000000 Properties=species:S:1:pos:R:3:velocities:R:3:Z:I:1
H         6.67172574       8.21545554       6.09684199         0.00000000       0.00000000       0.00000000          1
H        13.00186270      10.83654630       4.71124722         0.00000000       0.00000000       0.00000000          1
H         3.75772210      13.07783435       4.42392408         0.00000000       0.00000000       0.00000000          1
H        10.54984831       8.30661371      10.43936803         0.00000000       0.00000000       0.00000000          1
H         2.51093241       4.71335019       7.03987345         0.00000000       0.00000000       0.00000000          1
H         6.66317966       3.89993401       0.44447378         0.00000000       0.00000000       0.00000000          1
6
pbc=[F, F, F] list_num_par=6 energy=-0.01561272 iter=79 frozen=false Lattice="15.00000000 0.00000000 0.00000000 0.00000000 15.00000000 0.00000000 0.00000000 0.00000000 15.00000000" energy_frozen_part=0.00000000 Properties=species:S:1:pos:R:3:velocities:R:3:Z:I:1
H        10.17474714      14.18483075      12.55335670         0.00000000       0.00000000       0.00000000          1
H         5.51758842       2.91493685       0.85140067         0.00000000       0.00000000       0.00000000          1
H         9.54914648       7.28914123       4.97103474         0.00000000       0.00000000       0.00000000          1
H         9.85196880      12.97570223       1.55529243         0.00000000       0.00000000       0.00000000          1
H        14.00739468      11.58309827       5.57940077         0.00000000       0.00000000       0.00000000          1
H        13.36450173       4.82846345       6.02081003         0.00000000       0.00000000       0.00000000          1
6
pbc=[F, F, F] list_num_par=6 energy=-0.02334663 iter=89 frozen=false Lattice="15.00000000 0.00000000 0.00000000 0.00000000 15.00000000 0.00000000 0.00000000 0.00000000 15.00000000" energy_frozen_part=0.00000000 Properties=species:S:1:pos:R:3:velocities:R:3:Z:I:1
H         4.90962563      12.81364986      13.90643244         0.00000000       0.00000000       0.00000000          1
H        14.68863751       1.10360101       5.35377419         0.00000000       0.00000000       0.00000000          1
H         1.69290623       0.07991053      11.93335652         0.00000000       0.00000000       0.00000000          1
H         4.80797606       9.79231167      10.04265292         0.00000000       0.00000000       0.00000000          1
H         5.97216555       7.22763819      13.54163704         0.00000000       0.00000000       0.00000000          1
H        10.01911960       7.56139006       7.35356587         0.00000000       0.00000000       0.00000000          1
6
pbc=[F, F, F] list_num_par=6 energy=-0.03042609 iter=99 frozen=false Lattice="15.00000000 0.00000000 0.00000000 0.00000000 15.00000000 0.00000000 0.00000000 0.00000000 15.00000000" energy_frozen_part=0.00000000 Properties=species:S:1:pos:R:3:velocities:R:3:Z:I:1
H        12.36956057       9.87856940      12.29859709         0.00000000       0.00000000       0.00000000          1
H        11.05308458      14.68881128       2.87607395         0.00000000       0.00000000       0.00000000          1
H        14.56691469      12.15030122       8.75940398         0.00000000       0.00000000       0.00000000          1
H        11.41809897       2.22136423      10.24267066         0.00000000       0.00000000       0.00000000          1
H         6.98206900       0.90707305      12.74293682         0.00000000       0.00000000       0.00000000          1
H        10.30745521      11.68720264       7.10223813         0.00000000       0.00000000       0.00000000          1
6
pbc=[F, F, F] list_num_par=6 energy=-0.03835084 iter=109 frozen=false Lattice="15.00000000 0.00000000 0.00000000 0.00000000 15.00000000 0.00000000 0.00000000 0.00000000 15.00000000" energy_frozen_part=0.00000000 Properties=species:S:1:pos:R:3:velocities:R:3:Z:I:1
H        10.55043437       8.18330141       5.66858315         0.00000000       0.00000000       0.00000000          1
H         1.89959190      13.88094130       9.94190455         0.00000000       0.00000000       0.00000000          1
H        12.71183298       7.10362934      14.76465901         0.00000000       0.00000000       0.00000000          1
H         9.33258220       0.83488680       2.68269163         0.00000000       0.00000000       0.00000000          1
H         3.80905899      13.47395039       0.83211676         0.00000000       0.00000000       0.00000000          1
H        13.15916203      10.70755516       5.76320486         0.00000000       0.00000000       0.00000000          1
6
pbc=[F, F, F] list_num_par=6 energy=-0.04379910 iter=119 frozen=false Lattice="15.00000000 0.00000000 0.00000000 0.00000000 15.00000000 0.00000000 0.00000000 0.00000000 15.00000000" energy_frozen_part=0.00000000 Properties=species:S:1:pos:R:3:velocities:R:3:Z:I:1
H        12.35108854      10.90124077       2.58260859         0.00000000       0.00000000       0.00000000          1
H         8.74096520       1.74272559       1.42376449         0.00000000       0.00000000       0.00000000          1
H         6.32613115       5.43091036      10.25199166         0.00000000       0.00000000       0.00000000          1
H        13.83117369       7.68021965       5.67074432         0.00000000       0.00000000       0.00000000          1
H        14.18944713       9.24231659       3.82557887         0.00000000       0.00000000       0.00000000          1
H         1.63032165       7.36153069       7.39228718         0.00000000       0.00000000       0.00000000          1
6
pbc=[F, F, F] list_num_par=6 energy=-0.04884993 iter=129 frozen=false Lattice="15.00000000 0.00000000 0.00000000 0.00000000 15.00000000 0.00000000 0.00000000 0.00000000 15.00000000" energy_frozen_part=0.00000000 Properties=species:S:1:pos:R:3:velocities:R:3:Z:I:1
H        14.58288818       2.61394619      14.12771209         0.00000000       0.00000000       0.00000000          1
H        14.06237889       4.92027349      11.39553751         0.00000000       0.00000000       0.00000000          1
H        14.50519684       2.92785882       1.27212100         0.00000000       0.00000000       0.00000000          1
H         7.43441155       0.11528357      14.96813371         0.00000000       0.00000000       0.00000000          1
H         5.76373427       7.47492082      10.05130111         0.00000000       0.00000000       0.00000000          1
H        14.81757671       5.40094764       5.44747577         0.00000000       0.00000000       0.00000000          1
6
pbc=[F, F, F] list_num_par=6 energy=-0.05289881 iter=139 frozen=false Lattice="15.00000000 0.00000000 0.00000000 0.00000000 15.00000000 0.00000000 0.00000000 0.00000000 15.00000000" energy_frozen_part=0.00000000 Properties=species:S:1:pos:R:3:velocities:R:3:Z:I:1
H         0.20698771      13.20456269       9.10631247         0.00000000       0.00000000       0.00000000          1
H         4.40650553      14.18285668       3.35769397         0.00000000       0.00000000       0.00000000          1
H         9.31780105      12.46610216      12.26154123         0.00000000       0.00000000       0.00000000          1
H         9.97740710       3.13162156      12.17797806         0.00000000       0.00000000       0.00000000          1
H        10.93438548       0.06576696       6.36999462         0.00000000       0.00000000       0.00000000          1
H         1.97337698      12.23635277       5.85218041         0.00000000       0.00000000       0.00000000          1
6
pbc=[F, F, F] list_num_par=6 energy=-0.05732172 iter=149 frozen=false Lattice="15.00000000 0.00000000 0.00000000 0.00000000 15.00000000 0.00000000 0.00000000 0.00000000 15.00000000" energy_frozen_part=0.00000000 Properties=species:S:1:pos:R:3:velocities:R:3:Z:I:1
H        12.96418037       9.94540018      12.03537883         0.00000000       0.00000000       0.00000000          1
H        14.72520524      10.14312438       9.00495171         0.00000000       0.00000000       0.00000000          1
H         9.17766264       7.66497822       7.24460308         0.00000000       0.00000000       0.00000000          1
H        11.68577772      10.51401616       2.41102753         0.00000000       0.00000000       0.00000000          1
H         8.47067295      12.31825989      12.18355402         0.00000000       0.00000000       0.00000000          1
H         5.54129871       1.64202299      10.86965165         0.00000000       0.00000000       0.00000000          1
6
pbc=[F, F, F] list_num_par=6 energy=-0.06042089 iter=159 frozen=false Lattice="15.00000000 0.00000000 0.00000000 0.00000000 15.00000000 0.00000000 0.00000000 0.00000000 15.00000000" energy_frozen_part=0.00000000 Properties=species:S:1:pos:R:3:velocities:R:3:Z:I:1
H         8.42487620       6.00210482       2.00375422         0.00000000       0.00000000       0.00000000          1
H         4.37674498      10.36555631       5.56430991         0.00000000       0.00000000       0.00000000          1
H         2.84052502      11.34588397       1.91633571         0.00000000       0.00000000       0.00000000          1
H         4.53066452       8.03508141      13.29084367         0.00000000       0.00000000       0.00000000          1
H         4.27660692       5.04516064      11.02438367         0.00000000       0.00000000       0.00000000          1
H         4.83381547      14.83263698       7.67672626         0.00000000       0.00000000       0.00000000          1
6
pbc=[F, F, F] list_num_par=6 energy=-0.06427425 iter=169 frozen=false Lattice="15.00000000 0.00000000 0.00000000 0.00000000 15.00000000 0.00000000 0.00000000 0.00000000 15.00000000" energy_frozen_part=0.00000000 Properties=species:S:1:pos:R:3:velocities:R:3:Z:I:1
H         6.21115950       2.50691370       5.02733413         0.00000000       0.00000000       0.00000000          1
H         0.68626404      14.96907294       3.98887495         0.00000000       0.00000000       0.00000000          1
H         0.10368197       4.87434503       9.65525843         0.00000000       0.00000000       0.00000000          1
H         8.36650754       5.69277029       9.32260989         0.00000000       0.00000000       0.00000000          1
H         0.13098571       8.28736856       9.58129660         0.00000000       0.00000000       0.00000000          1
H         3.28500670      12.22659606       7.52137211         0.00000000       0.00000000       0.00000000          1
6
pbc=[F, F, F] list_num_par=6 energy=-0.06686063 iter=179 frozen=false Lattice="15.00000000 0.00000000 0.00000000 0.00000000 15.00000000 0.00000000 0.00000000 0.00000000 15.00000000" energy_frozen_part=0.00000000 Properties=species:S:1:pos:R:3:velocities:R:3:Z:I:1
H         1.71967332       3.96803927       3.95863993         0.00000000       0.00000000       0.00000000          1
H         0.97728995       8.05922480       3.95722645         0.00000000       0.00000000       0.00000000          1
H         5.11087237       1.51020190      14.72383071         0.00000000       0.00000000       0.00000000          1
H         5.33880747       3.12236026      11.65687176         0.00000000       0.00000000       0.00000000          1
H         8.97534127       0.88281317       6.01543083         0.00000000       0.00000000       0.00000000          1
H        11.30222209      10.66281954       6.04684310         0.00000000       0.00000000       0.00000000          1
6
pbc=[F, F, F] list_num_par=6 energy=-0.06999786 iter=189 frozen=false Lattice="15.00000000 0.00000000 0.00000000 0.00000000 15.00000000 0.00000000 0.00000000 0.00000000 15.00000000" energy_frozen_part=0.00000000 Properties=species:S:1:pos:R:3:velocities:R:3:Z:I:1
H         9.30115079       3.71869056      11.42600053         0.00000000       0.00000000       0.00000000          1
H         0.19932945       3.14776016      10.26115347         0.00000000       0.00000000       0.00000000          1
H         5.66971978      13.78204738      14.37399434         0.00000000       0.00000000       0.00000000          1
H         5.57551410      10.30277299       9.54655315         0.00000000       0.00000000       0.00000000          1
H         6.25405593       4.93986309      11.46803300         0.00000000       0.00000000       0.00000000          1
H        10.38602825       7.14610754       4.30286700         0.00000000       0.00000000       0.00000000          1
6
pbc=[F, F, F] list_num_par=6 energy=-0.07487219 iter=199 frozen=false Lattice="15.00000000 0.00000000 0.00000000 0.00000000 15.00000000 0.00000000 0.00000000 0.00000000 15.00000000" energy_frozen_part=0.00000000 Properties=species:S:1:pos:R:3:velocities:R:3:Z:I:1
H        10.71701645       6.51295394      12.23017042         0.00000000       0.00000000       0.00000000          1
H        12.35683396       5.85460774      14.12735008         0.00000000       0.00000000       0.00000000          1
H         3.83780033       5.79912961      13.37544876         0.00000000       0.00000000       0.00000000          1
H        12.39979721      11.22043994      12.39266335         0.00000000       0.00000000       0.00000000          1
H         1.11103817      10.99021237      14.41630178         0.00000000       0.00000000       0.00000000          1
H        13.05901211      14.98216008       1.20124285         0.00000000       0.00000000       0.00000000          1
6
pbc=[F, F, F] list_num_par=6 energy=-0.08004127 iter=209 frozen=false Lattice="15.00000000 0.00000000 0.00000000 0.00000000 15.00000000 0.00000000 0.00000000 0.00000000 15.00000000" energy_frozen_part=0.00000000 Properties=species:S:1:pos:R:3:velocities:R:3:Z:I:1
H         1.89457829       6.49314388       3.45193124         0.00000000       0.00000000       0.00000000          1
H         2.04283538      11.67695537       5.66163909         0.00000000       0.00000000       0.00000000          1
H         1.63966731       6.33119545       6.78110119         0.00000000       0.00000000       0.00000000          1
H         3.47576594       5.62712774      11.57169221         0.00000000       0.00000000       0.00000000          1
H         0.54406650       7.84455768      14.37400955         0.00000000       0.00000000       0.00000000          1
H         8.63820717      11.97688902       8.89730215         0.00000000       0.00000000       0.00000000          1
6
pbc=[F, F, F] list_num_par=6 energy=-0.08496782 iter=219 frozen=false Lattice="15.00000000 0.00000000 0.00000000 0.00000000 15.00000000 0.00000000 0.00000000 0.00000000 15.00000000" energy_frozen_part=0.00000000 Properties=species:S:1:pos:R:3:velocities:R:3:Z:I:1
H        11.00387452       8.38100108       8.38342406         0.00000000       0.00000000       0.00000000          1
H        12.52233676       0.32288415       8.74413719         0.00000000       0.00000000       0.00000000          1
H         9.70200241       6.94053392       6.59704695         0.00000000       0.00000000       0.00000000          1
H        14.25277963      13.22739259       2.84072797         0.00000000       0.00000000       0.00000000          1
H        14.23808698       6.97020952       1.99984723         0.00000000       0.00000000       0.00000000          1
H         4.29329485       3.48546172      10.17861774         0.00000000       0.00000000       0.00000000          1
6
pbc=[F, F, F] list_num_par=6 energy=-0.08811863 iter=229 frozen=false Lattice="15.00000000 0.00000000 0.00000000 0.00000000 15.00000000 0.00000000 0.00000000 0.00000000 15.00000000" energy_frozen_part=0.00000000 Properties=species:S:1:pos:R:3:velocities:R:3:Z:I:1
H        12.43903966      10.79176523       2.74558110         0.00000000       0.00000000       0.00000000          1
H         8.73121004       1.98567819       1.03112505         0.00000000       0.00000000       0.00000000          1
H         6.22744943       5.44011104      10.34645838         0.00000000       0.00000000       0.00000000          1
H        13.86934227       7.90088250       5.68762539         0.00000000       0.00000000       0.00000000          1
H        14.39517376       9.23186940       3.65486058         0.00000000       0.00000000       0.00000000          1
H         1.71332051       7.19713325       7.29271538         0.00000000       0.00000000       0.00000000          1
6
pbc=[F, F, F] list_num_par=6 energy=-0.09130076 iter=239 frozen=false Lattice="15.00000000 0.00000000 0.00000000 0.00000000 15.00000000 0.00000000 0.00000000 0.00000000 15.00000000" energy_frozen_part=0.00000000 Properties=species:S:1:pos:R:3:velocities:R:3:Z:I:1
H         6.02108379       3.39579280       0.87992250         0.00000000       0.00000000       0.00000000          1
H         0.04155837      13.53135785      10.50879920         0.00000000       0.00000000       0.00000000          1
H         0.16102224       9.90739751       7.53024359         0.00000000       0.00000000       0.00000000          1
H         3.24527795       7.33160168      14.74025083         0.00000000       0.00000000       0.00000000          1
H         7.70358205       6.48459943      13.20803618         0.00000000       0.00000000       0.00000000          1
H         3.16806857      10.71823589       8.52664473         0.00000000       0.00000000       0.00000000          1
6
pbc=[F, F, F] list_num_par=6 energy=-0.09445118 iter=249 frozen=false Lattice="15.00000000 0.00000000 0.00000000 0.00000000 15.00000000 0.00000000 0.00000000 0.00000000 15.00000000" energy_frozen_part=0.00000000 Properties=species:S:1:pos:R:3:velocities:R:3:Z:I:1
H         8.20973291       6.76896142      11.07088264         0.00000000       0.00000000       0.00000000          1
H         3.49078355      11.47695260       3.41207163         0.00000000       0.00000000       0.00000000          1
H         5.75405004      13.85843055      11.04619848         0.00000000       0.00000000       0.00000000          1
H         7.61339002      11.62932666      12.22928969         0.00000000       0.00000000       0.00000000          1
H         4.44679846       4.97614692      12.83627843         0.00000000       0.00000000       0.00000000          1
H        14.59919581       1.13051758      13.41652267         0.00000000       0.00000000       0.00000000          1
6
pbc=[F, F, F] list_num_par=6 energy=-0.09751749 iter=259 frozen=false Lattice="15.00000000 0.00000000 0.00000000 0.00000000 15.00000000 0.00000000 0.00000000 0.00000000 15.00000000" energy_frozen_part=0.00000000 Properties=species:S:1:pos:R:3:velocities:R:3:Z:I:1
H         1.74942650       9.85191748      12.18045919         0.00000000       0.00000000       0.00000000          1
H         2.45987412       3.43336124       8.23790570         0.00000000       0.00000000       0.00000000          1
H         4.35017141       5.77452916       8.04879930         0.00000000       0.00000000       0.00000000          1
H         2.10545190       7.01320819       3.14884895         0.00000000       0.00000000       0.00000000          1
H         8.74680739      10.28245273       6.29743889         0.00000000       0.00000000       0.00000000          1
H         1.25534728       1.35529298       0.39977949         0.00000000       0.00000000       0.00000000          1
6
pbc=[F, F, F] list_num_par=6 energy=-0.09986950 iter=269 frozen=false Lattice="15.00000000 0.00000000 0.00000000 0.00000000 15.00000000 0.00000000 0.00000000 0.00000000 15.00000000" energy_frozen_part=0.00000000 Properties=species:S:1:pos:R:3:velocities:R:3:Z:I:1
H         5.76319005      13.08382701       5.55492801         0.00000000       0.00000000       0.00000000          1
H         7.86718831       8.29851867       3.11134348         0.00000000       0.00000000       0.00000000          1
H         0.92575811       4.47850456      13.05070407         0.00000000       0.00000000       0.00000000          1
H         7.52274270       5.93382091      14.57362921         0.00000000       0.00000000       0.00000000          1
H         2.72310046       3.52138885      11.27724451         0.00000000       0.00000000       0.00000000          1
H         5.88888335      12.10507712      12.27406773         0.00000000       0.00000000       0.00000000          1
6
pbc=[F, F, F] list_num_par=6 energy=-0.10196867 iter=279 frozen=false Lattice="15.00000000 0.00000000 0.00000000 0.00000000 15.00000000 0.00000000 0.00000000 0.00000000 15.00000000" energy_frozen_part=0.00000000 Properties=species:S:1:pos:R:3:velocities:R:3:Z:I:1
H         4.70129732      10.99952158       5.88954400         0.00000000       0.00000000       0.00000000          1
H         1.57477454       3.04721534      12.68716838         0.00000000       0.00000000       0.00000000          1
H         4.47264759       2.23370501      13.43233571         0.00000000       0.00000000       0.00000000          1
H         8.81285356       9.80942489       3.46965366         0.00000000       0.00000000       0.00000000          1
H         3.64527059      12.46451648       0.75523189         0.00000000       0.00000000       0.00000000          1
H         5.92672254       6.76328526      12.96086103         0.00000000       0.00000000       0.00000000          1
6
pbc=[F, F, F] list_num_par=6 energy=-0.10482418 iter=289 frozen=false Lattice="15.00000000 0.00000000 0.00000000 0.00000000 15.00000000 0.00000000 0.00000000 0.00000000 15.00000000" energy_frozen_part=0.00000000 Properties=species:S:1:pos:R:3:velocities:R:3:Z:I:1
H        14.03295312      10.40189985       9.32863372         0.00000000       0.00000000       0.00000000          1
H        13.02406376       9.59305667       2.28167839         0.00000000       0.00000000       0.00000000          1
H         7.94950186       2.63307798       9.23433177         0.00000000       0.00000000       0.00000000          1
H         7.47131482       4.29983273      11.30702232         0.00000000       0.00000000       0.00000000          1
H         2.26482137       5.19839863      10.95261276         0.00000000       0.00000000       0.00000000          1
H        12.83419160       6.77569505      13.35533421         0.00000000       0.00000000       0.00000000          1
6
pbc=[F, F, F] list_num_par=6 energy=-0.10614350 iter=299 frozen=false Lattice="15.00000000 0.00000000 0.00000000 0.00000000 15.00000000 0.00000000 0.00000000 0.00000000 15.00000000" energy_frozen_part=0.00000000 Properties=species:S:1:pos:R:3:velocities:R:3:Z:I:1
H        10.46874218       9.95988811       9.00689467         0.00000000       0.00000000       0.00000000          1
H         6.92600663      10.59438922       2.86404724         0.00000000       0.00000000       0.00000000          1
H         5.36185923      14.58323278      12.32841781         0.00000000       0.00000000       0.00000000          1
H         7.50658553      13.08683643      10.90070341         0.00000000       0.00000000       0.00000000          1
H        11.13346819       6.79605752      13.19327326         0.00000000       0.00000000       0.00000000          1
H         9.38895762       0.03084121      12.55782676         0.00000000       0.00000000       0.00000000          1
6
pbc=[F, F, F] list_num_par=6 energy=-0.10837493 iter=309 frozen=false Lattice="15.00000000 0.00000000 0.00000000 0.00000000 15.00000000 0.00000000 0.00000000 0.00000000 15.00000000" energy_frozen_part=0.00000000 Properties=species:S:1:pos:R:3:velocities:R:3:Z:I:1
H         7.22688118       0.03652252       2.63488153         0.00000000       0.00000000       0.00000000          1
H         1.21948390      11.58092850      11.55187838         0.00000000       0.00000000       0.00000000          1