6
pbc=[F, F, F] list_num_par=6 energy=39.09488365 iter=9 frozen=false Lattice="15.00000000 0.00000000 0.00000000 0.00000000 15.00000000 0.00000000 0.00000000 0.00000000 15.00000000" energy_frozen_part=0.00000000 Properties=species:S:1:pos:R:3:velocities:R:3:Z:I:1
H        13.51896238      12.07014345       6.58926534         0.00000000       0.00000000       0.00000000          1
H         7.58305356       4.82139970       8.89508310         0.00000000       0.00000000       0.00000000          1
H        10.84445405       2.14273842      14.73629985         0.00000000       0.00000000       0.00000000          1
H        13.49736289      13.69847319       7.04905213         0.00000000       0.00000000       0.00000000          1
H        13.58249290       1.13433957       9.81515248         0.00000000       0.00000000       0.00000000          1
H         8.93914544       0.72996542       5.22290201         0.00000000       0.00000000       0.00000000          1
6
pbc=[F, F, F] list_num_par=6 energy=4.25056766 iter=19 frozen=false Lattice="15.00000000 0.00000000 0.00000000 0.00000000 15.00000000 0.00000000 0.00000000 0.00000000 15.00000000" energy_frozen_part=0.00000000 Properties=species:S:1:pos:R:3:velocities:R:3:Z:I:1
H        12.19120864       8.90010410       2.95233988         0.00000000       0.00000000       0.00000000          1
H        11.13059270       4.44855805       7.40617841         0.00000000       0.00000000       0.00000000          1
H         9.67763295      14.49723321       3.39078011         0.00000000       0.00000000       0.00000000          1
H         8.89257320       6.79447967       8.64391070         0.00000000       0.00000000       0.00000000          1
H         7.04653356       6.79415541       7.87589830         0.00000000       0.00000000       0.00000000          1
H         8.47665581      14.30590698      10.71118789         0.00000000       0.00000000       0.00000000          1
6
pbc=[F, F, F] list_num_par=6 energy=1.33463028 iter=29 frozen=false Lattice="15.00000000 0.00000000 0.00000000 0.00000000 15.00000000 0.00000000 0.00000000 0.00000000 15.00000000" energy_frozen_part=0.00000000 Properties=species:S:1:pos:R:3:velocities:R:3:Z:I:1
H         1.53972398       5.57109661      12.61784676         0.00000000       0.00000000       0.00000000          1
H         0.88411476       4.98367729      10.66541053         0.00000000       0.00000000       0.00000000          1
H         4.24525313       4.62078906      13.88019122         0.00000000       0.00000000       0.00000000          1
H        11.18442271       5.72402107      12.16771588         0.00000000       0.00000000       0.00000000          1
H         4.24372082       9.72289962       0.59738411         0.00000000       0.00000000       0.00000000          1
H         2.24387988       7.51639697      14.85271667         0.00000000       0.00000000       0.00000000          1
6
pbc=[F, F, F] list_num_par=6 energy=-0.00496326 iter=39 frozen=false Lattice="15.00000000 0.00000000 0.00000000 0.00000000 15.00000000 0.00000000 0.00000000 0.00000000 15.00000000" energy_frozen_part=0.00000000 Properties=species:S:1:pos:R:3:velocities:R:3:Z:I:1
H        13.85283210       4.97800495       2.94519492         0.00000000       0.00000000       0.00000000          1
H         9.79135427      10.69639236       0.85961899         0.00000000       0.00000000       0.00000000          1
H        11.18047504      12.04666561       9.05595093         0.00000000       0.00000000       0.00000000          1
H         3.95920843      14.65491195       2.77243908         0.00000000       0.00000000       0.00000000          1
H         1.95909063       6.30130923      10.69822376         0.00000000       0.00000000       0.00000000          1
H         9.02063768       4.69444427       5.76752195         0.00000000       0.00000000       0.00000000          1
6
pbc=[F, F, F] list_num_par=6 energy=-0.00637774 iter=49 frozen=false Lattice="15.00000000 0.00000000 0.00000000 0.00000000 15.00000000 0.00000000 0.00000000 0.00000000 15.00000000" energy_frozen_part=0.00000000 Properties=species:S:1:pos:R:3:velocities:R:3:Z:I:1
H         1.28395572       8.92198008      14.05550881         0.00000000       0.00000000       0.00000000          1
H         9.34200192      13.52984353       3.78641004         0.00000000       0.00000000       0.00000000          1
H         5.33866058       4.00477532       9.33514968         0.00000000       0.00000000       0.00000000          1
H         7.14830243       2.29366345       4.75105876         0.00000000       0.00000000       0.00000000          1
H        13.94099615       4.79877446       6.87967513         0.00000000       0.00000000       0.00000000          1
H         7.93157981      11.41155325      11.73925009         0.00000000       0.00000000       0.00000000          1
6
pbc=[F, F, F] list_num_par=6 energy=-0.01090803 iter=59 frozen=false Lattice="15.00000000 0.00000000 0.00000000 0.00000000 15.00000000 0.00000000 0.00000000 0.00000000 15.00000000" energy_frozen_part=0.00000000 Properties=species:S:1:pos:R:3:velocities:R:3:Z:I:1
H         4.15353242       0.71388491      10.88997351         0.00000000       0.00000000       0.00000000          1
H         5.61979740       7.32553192       1.24007448         0.00000000       0.00000000       0.00000000          1
H         5.04405348      12.88139163       2.64932106         0.00000000       0.00000000       0.00000000          1
H        12.25027423       3.53755303       6.06020777         0.00000000       0.00000000       0.00000000          1
H        13.78624399       6.40807012       2.57159108         0.00000000       0.00000000       0.00000000          1
H        14.00863071      14.34343075       7.28959820         0.00000000       0.00000000       0.00000000          1
6
pbc=[F, F, F] list_num_par=6 energy=-0.01408305 iter=69 frozen=false Lattice="15.00000000 0.00000000 0.00000000 0.00000000 15.00000000 0.00000000 0.00000000 0.00000000 15.00000000" energy_frozen_part=0.00000000 Properties=species:S:1:pos:R:3:velocities:R:3:Z:I:1
H         0.56306331       7.58353833       3.12379710         0.00000000       0.00000000       0.00000000          1
H         7.25295006       6.08736384       3.15087936         0.00000000       0.00000000       0.00000000          1
H        12.78777262      14.42942579       1.64619362         0.00000000       0.00000000       0.00000000          1
H        11.92507749       1.17793374      10.67577291         0.00000000       0.00000000       0.00000000          1
H         4.60701875      10.17178690       4.70164466         0.00000000       0.00000000       0.00000000          1
H         9.70153031       7.89682369       9.10825101         0.00000000       0.00000000       0.00000000          1
6
pbc=[F, F, F] list_num_par=6 energy=-0.01855026 iter=79 frozen=false Lattice="15.00000000 0.00000000 0.00000000 0.00000000 15.00000000 0.00000000 0.00000000 0.00000000 15.00000000" energy_frozen_part=0.00000000 Properties=species:S:1:pos:R:3:velocities:R:3:Z:I:1
H        13.01584379       9.60203790       8.93467144         0.00000000       0.00000000       0.00000000          1
H         1.72933980      14.23708798       4.91861289         0.00000000       0.00000000       0.00000000          1
H        11.21812661       7.58782296       5.57879275         0.00000000       0.00000000       0.00000000          1
H         0.90256653       9.78156642       1.97684589         0.00000000       0.00000000       0.00000000          1
H         1.15478942       0.95754581       5.99780510         0.00000000       0.00000000       0.00000000          1
H         5.48669520       2.23794521      13.44784022         0.00000000       0.00000000       0.00000000          1
6
pbc=[F, F, F] list_num_par=6 energy=-0.02339881 iter=89 frozen=false Lattice="15.00000000 0.00000000 0.00000000 0.00000000 15.00000000 0.00000000 0.00000000 0.00000000 15.00000000" energy_frozen_part=0.00000000 Properties=species:S:1:pos:R:3:velocities:R:3:Z:I:1
H         5.57881316       8.62824056       4.58550200         0.00000000       0.00000000       0.00000000          1
H         4.52375899      13.02875187      10.54466808         0.00000000       0.00000000       0.00000000          1
H         0.81454063       8.83139416      11.27299721         0.00000000       0.00000000       0.00000000          1
H         0.52911973       0.39489878      12.80146303         0.00000000       0.00000000       0.00000000          1
H         4.79728880      12.44545405       3.27523000         0.00000000       0.00000000       0.00000000          1
H        13.30179750       4.38642909       9.32289708         0.00000000       0.00000000       0.00000000          1
6
pbc=[F, F, F] list_num_par=6 energy=-0.02893014 iter=99 frozen=false Lattice="15.00000000 0.00000000 0.00000000 0.00000000 15.00000000 0.00000000 0.00000000 0.00000000 15.00000000" energy_frozen_part=0.00000000 Properties=species:S:1:pos:R:3:velocities:R:3:Z:I:1
H        10.84696132       0.39909317       0.57939682         0.00000000       0.00000000       0.00000000          1
H         2.26628479       0.17841815      11.41742475         0.00000000       0.00000000       0.00000000          1
H         6.56590600       0.87326332       9.60997935         0.00000000       0.00000000       0.00000000          1
H        11.51999186      10.28067121       5.50055088         0.00000000       0.00000000       0.00000000          1
H        13.21839932      12.55484229       8.45448279         0.00000000       0.00000000       0.00000000          1
H         6.39906948       9.45402929       1.02907506         0.00000000       0.00000000       0.00000000          1
6
pbc=[F, F, F] list_num_par=6 energy=-0.03405322 iter=109 frozen=false Lattice="15.00000000 0.00000000 0.00000000 0.00000000 15.00000000 0.00000000 0.00000000 0.00000000 15.00000000" energy_frozen_part=0.00000000 Properties=species:S:1:pos:R:3:velocities:R:3:Z:I:1
H         0.09954710       0.54722821       2.73436606         0.00000000       0.00000000       0.00000000          1
H        13.54840928       5.73673537       7.44841862         0.00000000       0.00000000       0.00000000          1
H         3.69154214       4.17186295      12.96039397         0.00000000       0.00000000       0.00000000          1
H        10.90313734       8.41956173      12.76041888         0.00000000       0.00000000       0.00000000          1
H        11.76777117       4.65864440      12.63466809         0.00000000       0.00000000       0.00000000          1
H         5.28917986       3.35166622       2.20702888         0.00000000       0.00000000       0.00000000          1
6
pbc=[F, F, F] list_num_par=6 energy=-0.03688604 iter=119 frozen=false Lattice="15.00000000 0.00000000 0.00000000 0.00000000 15.00000000 0.00000000 0.00000000 0.00000000 15.00000000" energy_frozen_part=0.00000000 Properties=species:S:1:pos:R:3:velocities:R:3:Z:I:1
H        14.24437164       5.84016660      10.42027795         0.00000000       0.00000000       0.00000000          1
H         2.54439310      14.48228795       5.96915889         0.00000000       0.00000000       0.00000000          1
H         8.88241616       0.59520250       5.94477465         0.00000000       0.00000000       0.00000000          1
H         0.26846326      10.39345690       3.84861759         0.00000000       0.00000000       0.00000000          1
H         5.66757227       6.44480369       2.22627181         0.00000000       0.00000000       0.00000000          1
H         6.22514202       3.23762514       0.25600020         0.00000000       0.00000000       0.00000000          1
6
pbc=[F, F, F] list_num_par=6 energy=-0.04080125 iter=129 frozen=false Lattice="15.00000000 0.00000000 0.00000000 0.00000000 15.00000000 0.00000000 0.00000000 0.00000000 15.00000000" energy_frozen_part=0.00000000 Properties=species:S:1:pos:R:3:velocities:R:3:Z:I:1
H        14.35140775      11.55407308      14.30320875         0.00000000       0.00000000       0.00000000          1
H         6.65105913       6.17529237       4.16698002         0.00000000       0.00000000       0.00000000          1
H         1.63556278       9.64767034       6.93355429         0.00000000       0.00000000       0.00000000          1
H         7.64146017       2.38647831      12.88338128         0.00000000       0.00000000       0.00000000          1
H        14.20411463       4.01788165       4.41430440         0.00000000       0.00000000       0.00000000          1
H         0.76136435       7.61458545       9.78471782         0.00000000       0.00000000       0.00000000          1
6
pbc=[F, F, F] list_num_par=6 energy=-0.04605603 iter=139 frozen=false Lattice="15.00000000 0.00000000 0.00000000 0.00000000 15.00000000 0.00000000 0.00000000 0.00000000 15.00000000" energy_frozen_part=0.00000000 Properties=species:S:1:pos:R:3:velocities:R:3:Z:I:1
H        13.83679904       0.82400273       9.33530434         0.00000000       0.00000000       0.00000000          1
H         8.39493941       2.84525113      12.26129254         0.00000000       0.00000000       0.00000000          1
H        14.09794979       4.27761304      10.23007420         0.00000000       0.00000000       0.00000000          1
H         7.92660705      13.46437267       7.29609463         0.00000000       0.00000000       0.00000000          1
H        14.91509572       9.47803537      13.13777898         0.00000000       0.00000000       0.00000000          1
H         9.13790797       2.82080909       2.27860036         0.00000000       0.00000000       0.00000000          1
6
pbc=[F, F, F] list_num_par=6 energy=-0.04877909 iter=149 frozen=false Lattice="15.00000000 0.00000000 0.00000000 0.00000000 15.00000000 0.00000000 0.00000000 0.00000000 15.00000000" energy_frozen_part=0.00000000 Properties=species:S:1:pos:R:3:velocities:R:3:Z:I:1
H         0.78263413      13.14415205       4.06971430         0.00000000       0.00000000       0.00000000          1
H         6.85628247       8.35500488      12.56258883         0.00000000       0.00000000       0.00000000          1
H         7.95191435       3.32937173      12.43572845         0.00000000       0.00000000       0.00000000          1
H         3.20200828       3.05729043       9.69350971         0.00000000       0.00000000       0.00000000          1
H         1.20581304       3.28276111       3.54292077         0.00000000       0.00000000       0.00000000          1
H         0.32169084       0.82481194       9.76445106         0.00000000       0.00000000       0.00000000          1
6
pbc=[F, F, F] list_num_par=6 energy=-0.05344851 iter=159 frozen=false Lattice="15.00000000 0.00000000 0.00000000 0.00000000 15.00000000 0.00000000 0.00000000 0.00000000 15.00000000" energy_frozen_part=0.00000000 Properties=species:S:1:pos:R:3:velocities:R:3:Z:I:1
H         6.93943255      13.67399041       5.81852138         0.00000000       0.00000000       0.00000000          1
H         7.85842366       5.34093077       8.39598025         0.00000000       0.00000000       0.00000000          1
H        12.23977142       1.05212301       5.28481558         0.00000000       0.00000000       0.00000000          1
H         2.70150654       9.46184049       6.26895628         0.00000000       0.00000000       0.00000000          1
H         8.59390962       1.86144895       9.44891669         0.00000000       0.00000000       0.00000000          1
H         6.91567618       9.47947376      10.42280023         0.00000000       0.00000000       0.00000000          1
6
pbc=[F, F, F] list_num_par=6 energy=-0.05901658 iter=169 frozen=false Lattice="15.00000000 0.00000000 0.00000000 0.00000000 15.00000000 0.00000000 0.00000000 0.00000000 15.00000000" energy_frozen_part=0.00000000 Properties=species:S:1:pos:R:3:velocities:R:3:Z:I:1
H        10.00265448      11.94147240       7.43711634         0.00000000       0.00000000       0.00000000          1
H         5.36328634       5.00037509       4.59835341         0.00000000       0.00000000       0.00000000          1
H         9.79934268       0.25049687       4.93450560         0.00000000       0.00000000       0.00000000          1
H        12.22079327      10.52651893      10.86163323         0.00000000       0.00000000       0.00000000          1
H         7.01690291      12.60634342      10.72062468         0.00000000       0.00000000       0.00000000          1
H         7.27747531      11.59420006       4.67771814         0.00000000       0.00000000       0.00000000          1
6
pbc=[F, F, F] list_num_par=6 energy=-0.06503140 iter=179 frozen=false Lattice="15.00000000 0.00000000 0.00000000 0.00000000 15.00000000 0.00000000 0.00000000 0.00000000 15.00000000" energy_frozen_part=0.00000000 Properties=species:S:1:pos:R:3:velocities:R:3:Z:I:1
H        14.86068099       5.26928453      10.62483348         0.00000000       0.00000000       0.00000000          1
H         2.00899197      12.45644328       7.91939902         0.00000000       0.00000000       0.00000000          1
H         7.26588700       1.08194350       6.31631688         0.00000000       0.00000000       0.00000000          1
H         0.94196653      12.50374404       4.53314190         0.00000000       0.00000000       0.00000000          1
H         4.71544373       6.89570117       2.44495063         0.00000000       0.00000000       0.00000000          1
H         6.17039316       3.32686401       0.97374782         0.00000000       0.00000000       0.00000000          1
6
pbc=[F, F, F] list_num_par=6 energy=-0.07089433 iter=189 frozen=false Lattice="15.00000000 0.00000000 0.00000000 0.00000000 15.00000000 0.00000000 0.00000000 0.00000000 15.00000000" energy_frozen_part=0.00000000 Properties=species:S:1:pos:R:3:velocities:R:3:Z:I:1
H         2.83600881       6.35309127       2.66259210         0.00000000       0.00000000       0.00000000          1
H         6.34654834       7.54220044      11.83649365         0.00000000       0.00000000       0.00000000          1
H         4.63821255      14.49052453      10.24961913         0.00000000       0.00000000       0.00000000          1
H         5.07732766      14.12987322      13.72062202         0.00000000       0.00000000       0.00000000          1
H        12.93547608       0.68631142       7.81885561         0.00000000       0.00000000       0.00000000          1
H         6.10974111       8.51598637       2.88235690         0.00000000       0.00000000       0.00000000          1
6
pbc=[F, F, F] list_num_par=6 energy=-0.07582134 iter=199 frozen=false Lattice="15.00000000 0.00000000 0.00000000 0.00000000 15.00000000 0.00000000 0.00000000 0.00000000 15.00000000" energy_frozen_part=0.00000000 Properties=species:S:1:pos:R:3:velocities:R:3:Z:I:1
H         9.50658304       1.70595401      12.73423126         0.00000000       0.00000000       0.00000000          1
H         2.94556141      14.14387916      13.40792017         0.00000000       0.00000000       0.00000000          1
H        10.78073300       9.87942810       1.10251068         0.00000000       0.00000000       0.00000000          1
H         3.21289905       0.33587237       8.99871097         0.00000000       0.00000000       0.00000000          1
H         6.81701285       1.09674759      14.27906721         0.00000000       0.00000000       0.00000000          1
H         0.16181919       0.46720074       1.43088108         0.00000000       0.00000000       0.00000000          1
6
pbc=[F, F, F] list_num_par=6 energy=-0.07939024 iter=209 frozen=false Lattice="15.00000000 0.00000000 0.00000000 0.00000000 15.00000000 0.00000000 0.00000000 0.00000000 15.00000000" energy_frozen_part=0.00000000 Properties=species:S:1:pos:R:3:velocities:R:3:Z:I:1
H        13.95200199       7.61868217       3.36230334         0.00000000       0.00000000       0.00000000          1
H        12.05847115      13.21858622      12.81759257         0.00000000       0.00000000       0.00000000          1
H         6.65491190       9.08365583      11.26638650         0.00000000       0.00000000       0.00000000          1
H         4.63560845      12.81733847       0.01964944         0.00000000       0.00000000       0.00000000          1
H        13.51389857      10.85330850      11.31182324         0.00000000       0.00000000       0.00000000          1
H         2.68512627      14.87021790       4.62123969         0.00000000       0.00000000       0.00000000          1
6
pbc=[F, F, F] list_num_par=6 energy=-0.08607341 iter=219 frozen=false Lattice="15.00000000 0.00000000 0.00000000 0.00000000 15.00000000 0.00000000 0.00000000 0.00000000 15.00000000" energy_frozen_part=0.00000000 Properties=species:S:1:pos:R:3:velocities:R:3:Z:I:1
H         9.95952269       7.83535215       6.17456851         0.00000000       0.00000000       0.00000000          1
H         3.48528516       1.98291888      11.15409576         0.00000000       0.00000000       0.00000000          1
H         1.90208685      10.50386712       5.32764391         0.00000000       0.00000000       0.00000000          1
H        14.86273704       1.94329440       3.68675961         0.00000000       0.00000000       0.00000000          1
H         3.19480766      14.64180703       5.67035490         0.00000000       0.00000000       0.00000000          1
H        13.10077844       7.61245739       6.70392059         0.00000000       0.00000000       0.00000000          1
6
pbc=[F, F, F] list_num_par=6 energy=-0.08999340 iter=229 frozen=false Lattice="15.00000000 0.00000000 0.00000000 0.00000000 15.00000000 0.00000000 0.00000000 0.00000000 15.00000000" energy_frozen_part=0.00000000 Properties=species:S:1:pos:R:3:velocities:R:3:Z:I:1
H        14.74283611      13.00492382       0.36475963         0.00000000       0.00000000       0.00000000          1
H         0.86939396      14.87641115       6.16695822         0.00000000       0.00000000       0.00000000          1
H         2.52706762       8.82254595       2.14723825         0.00000000       0.00000000       0.00000000          1
H        14.57482363      10.79759683       5.86808137         0.00000000       0.00000000       0.00000000          1
H         5.33032175      11.21612142       1.30783617         0.00000000       0.00000000       0.00000000          1
H         4.07448519      14.09978878       6.91538440         0.00000000       0.00000000       0.00000000          1
6
pbc=[F, F, F] list_num_par=6 energy=-0.09363954 iter=239 frozen=false Lattice="15.00000000 0.00000000 0.00000000 0.00000000 15.00000000 0.00000000 0.00000000 0.00000000 15.00000000" energy_frozen_part=0.00000000 Properties=species:S:1:pos:R:3:velocities:R:3:Z:I:1
H         1.17074410       0.97474895       1.74697920         0.00000000       0.00000000       0.00000000          1
H         1.82832666      12.51615003       5.28250716         0.00000000       0.00000000       0.00000000          1
H         5.75008350      14.26403446      12.74642995         0.00000000       0.00000000       0.00000000          1
H         1.06931907      12.91578298      14.63508561         0.00000000       0.00000000       0.00000000          1
H        13.05412434      12.53144423       4.75965884         0.00000000       0.00000000       0.00000000          1
H         4.11237907      11.49821698       6.97009121         0.00000000       0.00000000       0.00000000          1
6
pbc=[F, F, F] list_num_par=6 energy=-0.09707519 iter=249 frozen=false Lattice="15.00000000 0.00000000 0.00000000 0.00000000 15.00000000 0.00000000 0.00000000 0.00000000 15.00000000" energy_frozen_part=0.00000000 Properties=species:S:1:pos:R:3:velocities:R:3:Z:I:1
H         6.95014725       9.56380280       1.23319201         0.00000000       0.00000000       0.00000000          1
H         1.12221851      12.02052691       7.96434170         0.00000000       0.00000000       0.00000000          1
H        11.64419797       5.78210941      13.20043334         0.00000000       0.00000000       0.00000000          1
H         2.27643302      12.12424365      10.41884160         0.00000000       0.00000000       0.00000000          1
H         9.00286949       1.40701293       3.41264340         0.00000000       0.00000000       0.00000000          1
H         3.71472430       5.09608613       6.04263937         0.00000000       0.00000000       0.00000000          1
6
pbc=[F, F, F] list_num_par=6 energy=-0.10208322 iter=259 frozen=false Lattice="15.00000000 0.00000000 0.00000000 0.00000000 15.00000000 0.00000000 0.00000000 0.00000000 15.00000000" energy_frozen_part=0.00000000 Properties=species:S:1:pos:R:3:velocities:R:3:Z:I:1
H        11.70017890      14.11410117       2.54647464         0.00000000       0.00000000       0.00000000          1
H         5.42958553      14.33984964       6.15244519         0.00000000       0.00000000       0.00000000          1
H        14.10793474       8.76892612       6.23726003         0.00000000       0.00000000       0.00000000          1
H         0.79794584       2.92716278       9.87380640         0.00000000       0.00000000       0.00000000          1
H         8.05802072       3.31783559       6.98188357         0.00000000       0.00000000       0.00000000          1
H         2.27329553       5.33580399       9.49184503         0.00000000       0.00000000       0.00000000          1
6
pbc=[F, F, F] list_num_par=6 energy=-0.10565293 iter=269 frozen=false Lattice="15.00000000 0.00000000 0.00000000 0.00000000 15.00000000 0.00000000 0.00000000 0.00000000 15.00000000" energy_frozen_part=0.00000000 Properties=species:S:1:pos:R:3:velocities:R:3:Z:I:1
H         5.59975674      13.41845616       8.81252563         0.00000000       0.00000000       0.00000000          1
H         3.32468160       5.85632564       7.63334857         0.00000000       0.00000000       0.00000000          1
H         0.31281701      12.46107356       3.95194004         0.00000000       0.00000000       0.00000000          1
H         3.95676916      11.25668903       9.22124318         0.00000000       0.00000000       0.00000000          1
H        13.62761041       4.07694018       5.53279315         0.00000000       0.00000000       0.00000000          1
H        12.84808801       8.41013061       9.32167396         0.00000000       0.00000000       0.00000000          1
6
pbc=[F, F, F] list_num_par=6 energy=-0.10780345 iter=279 frozen=false Lattice="15.00000000 0.00000000 0.00000000 0.00000000 15.00000000 0.00000000 0.00000000 0.00000000 15.00000000" energy_frozen_part=0.00000000 Properties=species:S:1:pos:R:3:velocities:R:3:Z:I:1
H         6.17955808       9.91344334      11.90574295         0.00000000       0.00000000       0.00000000          1
H         5.88964295       2.57090228       7.82354474         0.00000000       0.00000000       0.00000000          1
H        12.52685707       2.24666995       1.44313046         0.00000000       0.00000000       0.00000000          1
H         1.83045275       7.46247030      11.60997696         0.00000000       0.00000000       0.00000000          1
H         2.08606571       0.85060943       3.44673541         0.00000000       0.00000000       0.00000000          1
H         5.41354939      12.38523708      10.62641417         0.00000000       0.00000000       0.00000000          1
6
pbc=[F, F, F] list_num_par=6 energy=-0.11010223 iter=289 frozen=false Lattice="15.00000000 0.00000000 0.00000000 0.00000000 15.00000000 0.00000000 0.00000000 0.00000000 15.00000000" energy_frozen_part=0.00000000 Properties=species:S:1:pos:R:3:velocities:R:3:Z:I:1
H        10.12973343       9.08285150      13.10347671         0.00000000       0.00000000       0.00000000          1
H         4.97506598       9.02045755       9.32873104         0.00000000       0.00000000       0.00000000          1
H        11.28782114       2.42665276       5.96835809         0.00000000       0.00000000       0.00000000          1
H         3.64219242       6.37709745      13.30879462         0.00000000       0.00000000       0.00000000          1
H        11.80339939       8.33564160      11.02620694         0.00000000       0.00000000       0.00000000          1
H         0.55049774       0.81957395      12.26361789         0.00000000       0.00000000       0.00000000          1
6
pbc=[F, F, F] list_num_par=6 energy=-0.11394993 iter=299 frozen=false Lattice="15.00000000 0.00000000 0.00000000 0.00000000 15.00000000 0.00000000 0.00000000 0.00000000 15.00000000" energy_frozen_part=0.00000000 Properties=species:S:1:pos:R:3:velocities:R:3:Z:I:1
H        13.91846016       4.35407069       9.12549374         0.00000000       0.00000000       0.00000000          1
H         7.29096791       5.75420407       2.96721015         0.00000000       0.00000000       0.00000000          1
H         4.29744700       0.21940617       6.47788189         0.00000000       0.00000000       0.00000000          1
H         2.39572672       0.06311184      10.04763846         0.00000000       0.00000000       0.00000000          1
H         9.38754490       4.35899051       3.81740401         0.00000000       0.00000000       0.00000000          1
H         4.10434674       5.16516608      10.28042379         0.00000000       0.00000000       0.00000000          1
6
pbc=[F, F, F] list_num_par=6 energy=-0.11850397 iter=309 frozen=false Lattice="15.00000000 0.00000000 0.00000000 0.00000000 15.00000000 0.00000000 0.00000000 0.00000000 15.00000000" energy_frozen_part=0.00000000 Properties=species:S:1:pos:R:3:velocities:R:3:Z:I:1
H         5.97318695       6.83754190       5.72841826         0.00000000       0.00000000       0.00000000          1
H        11.18226287       4.63918837       9.86592691         0.00000000       0.00000000       0.00000000          1