6
pbc=[F, F, F] list_num_par=6 energy=-1.26974174 iter=20000 frozen=false Lattice="15.00000000 0.00000000 0.00000000 0.00000000 15.00000000 0.00000000 0.00000000 0.00000000 15.00000000" energy_frozen_part=0.00000000 Properties=species:S:1:pos:R:3:velocities:R:3:Z:I:1
H         8.13010841       4.81172964       3.69315279         0.00000000       0.00000000       0.00000000          1
H         9.93832415       4.95095420       5.81806628         0.00000000       0.00000000       0.00000000          1
H         8.73332308       7.45170710       3.00687544         0.00000000       0.00000000       0.00000000          1
H         7.89173139       6.83986093       5.59949148         0.00000000       0.00000000       0.00000000          1
H        10.54153505       7.59092770       5.13179721         0.00000000       0.00000000       0.00000000          1
H        10.77990761       5.56279921       3.22544794         0.00000000       0.00000000       0.00000000          1
6
pbc=[F, F, F] list_num_par=6 energy=-1.26974174 iter=20000 frozen=false Lattice="15.00000000 0.00000000 0.00000000 0.00000000 15.00000000 0.00000000 0.00000000 0.00000000 15.00000000" energy_frozen_part=0.00000000 Properties=species:S:1:pos:R:3:velocities:R:3:Z:I:1
H         9.28132104       3.58572495       5.63489381         0.00000000       0.00000000       0.00000000          1
H        11.85741604       4.53855935       6.14493632         0.00000000       0.00000000       0.00000000          1
H         8.45882136       6.16943124       4.96240029         0.00000000       0.00000000       0.00000000          1
H         9.66237935       5.68631273       7.43673440         0.00000000       0.00000000       0.00000000          1
H        11.03491322       7.12226245       5.47243886         0.00000000       0.00000000       0.00000000          1
H        10.65386619       5.02168310       3.67060145         0.00000000       0.00000000       0.00000000          1
6
pbc=[F, F, F] list_num_par=6 energy=-1.26974174 iter=20000 frozen=false Lattice="15.00000000 0.00000000 0.00000000 0.00000000 15.00000000 0.00000000 0.00000000 0.00000000 15.00000000" energy_frozen_part=0.00000000 Properties=species:S:1:pos:R:3:velocities:R:3:Z:I:1
H         8.13362009       4.81023997       3.69435956         0.00000000       0.00000000       0.00000000          1
H         9.94084226       4.95178453       5.81996340         0.00000000       0.00000000       0.00000000          1
H         8.73545598       7.45021093       3.00686508         0.00000000       0.00000000       0.00000000          1
H         7.89315051       6.83927705       5.59946601         0.00000000       0.00000000       0.00000000          1
H        10.54267900       7.59175254       5.13247143         0.00000000       0.00000000       0.00000000          1
H        10.78313937       5.56270887       3.22735844         0.00000000       0.00000000       0.00000000          1
6
pbc=[F, F, F] list_num_par=6 energy=-1.26974174 iter=20000 frozen=false Lattice="15.00000000 0.00000000 0.00000000 0.00000000 15.00000000 0.00000000 0.00000000 0.00000000 15.00000000" energy_frozen_part=0.00000000 Properties=species:S:1:pos:R:3:velocities:R:3:Z:I:1
H         8.13367129       4.81039696       3.69432397         0.00000000       0.00000000       0.00000000          1
H         9.94079707       4.95189112       5.82001474         0.00000000       0.00000000       0.00000000          1
H         8.73555376       7.45037026       3.00691153         0.00000000       0.00000000       0.00000000          1
H         7.89312877       6.83939974       5.59946445         0.00000000       0.00000000       0.00000000          1
H        10.54268069       7.59187397       5.13260118         0.00000000       0.00000000       0.00000000          1
H        10.78322016       5.56286704       3.22746524         0.00000000       0.00000000       0.00000000          1
6
pbc=[F, F, F] list_num_par=6 energy=-1.26974174 iter=20000 frozen=false Lattice="15.00000000 0.00000000 0.00000000 0.00000000 15.00000000 0.00000000 0.00000000 0.00000000 15.00000000" energy_frozen_part=0.00000000 Properties=species:S:1:pos:R:3:velocities:R:3:Z:I:1
H         8.13366733       4.81037514       3.69434567         0.00000000       0.00000000       0.00000000          1
H         9.94080768       4.95190464       5.82002121         0.00000000       0.00000000       0.00000000          1
H         8.73553392       7.45035074       3.00690568         0.00000000       0.00000000       0.00000000          1
H         7.89312709       6.83939566       5.59946613         0.00000000       0.00000000       0.00000000          1
H        10.54267252       7.59187388       5.13258178         0.00000000       0.00000000       0.00000000          1
H        10.78321379       5.56284600       3.22746243         0.00000000       0.00000000       0.00000000          1
6
pbc=[F, F, F] list_num_par=6 energy=-1.26974174 iter=20000 frozen=false Lattice="15.00000000 0.00000000 0.00000000 0.00000000 15.00000000 0.00000000 0.00000000 0.00000000 15.00000000" energy_frozen_part=0.00000000 Properties=species:S:1:pos:R:3:velocities:R:3:Z:I:1
H         9.28131183       3.58572636       5.63489437         0.00000000       0.00000000       0.00000000          1
H        11.85741049       4.53855190       6.14493074         0.00000000       0.00000000       0.00000000          1
H         8.45882153       6.16943650       4.96240046         0.00000000       0.00000000       0.00000000          1
H         9.66237827       5.68631077       7.43673735         0.00000000       0.00000000       0.00000000          1
H        11.03491974       7.12225519       5.47244220         0.00000000       0.00000000       0.00000000          1
H        10.65385105       5.02167205       3.67059671         0.00000000       0.00000000       0.00000000          1
6
pbc=[F, F, F] list_num_par=6 energy=-1.26974174 iter=20000 frozen=false Lattice="15.00000000 0.00000000 0.00000000 0.00000000 15.00000000 0.00000000 0.00000000 0.00000000 15.00000000" energy_frozen_part=0.00000000 Properties=species:S:1:pos:R:3:velocities:R:3:Z:I:1
H         9.28132656       3.58572709       5.63488629         0.00000000       0.00000000       0.00000000          1
H        11.85741606       4.53856244       6.14492031         0.00000000       0.00000000       0.00000000          1
H         8.45881991       6.16943686       4.96240724         0.00000000       0.00000000       0.00000000          1
H         9.66238458       5.68629881       7.43674012         0.00000000       0.00000000       0.00000000          1
H        11.03491396       7.12226808       5.47244688         0.00000000       0.00000000       0.00000000          1
H        10.65385576       5.02169652       3.67059553         0.00000000       0.00000000       0.00000000          1
6
pbc=[F, F, F] list_num_par=6 energy=-1.26974174 iter=20000 frozen=false Lattice="15.00000000 0.00000000 0.00000000 0.00000000 15.00000000 0.00000000 0.00000000 0.00000000 15.00000000" energy_frozen_part=0.00000000 Properties=species:S:1:pos:R:3:velocities:R:3:Z:I:1
H         8.13363047       4.81024701       3.69436201         0.00000000       0.00000000       0.00000000          1
H         9.94084217       4.95180587       5.81997434         0.00000000       0.00000000       0.00000000          1
H         8.73545877       7.45021281       3.00685902         0.00000000       0.00000000       0.00000000          1
H         7.89315533       6.83930252       5.59946244         0.00000000       0.00000000       0.00000000          1
H        10.54267916       7.59177787       5.13247155         0.00000000       0.00000000       0.00000000          1
H        10.78315036       5.56272518       3.22737150         0.00000000       0.00000000       0.00000000          1
6
pbc=[F, F, F] list_num_par=6 energy=-1.26974174 iter=20000 frozen=false Lattice="15.00000000 0.00000000 0.00000000 0.00000000 15.00000000 0.00000000 0.00000000 0.00000000 15.00000000" energy_frozen_part=0.00000000 Properties=species:S:1:pos:R:3:velocities:R:3:Z:I:1
H         9.28142378       3.58564894       5.63516331         0.00000000       0.00000000       0.00000000          1
H        11.85747495       4.53882446       6.14475998         0.00000000       0.00000000       0.00000000          1
H         8.45855203       6.16918916       4.96249573         0.00000000       0.00000000       0.00000000          1
H         9.66248088       5.68647451       7.43672469         0.00000000       0.00000000       0.00000000          1
H        11.03461183       7.12236342       5.47208857         0.00000000       0.00000000       0.00000000          1
H        10.65354177       5.02153832       3.67052801         0.00000000       0.00000000       0.00000000          1
6
pbc=[F, F, F] list_num_par=6 energy=-1.26974174 iter=20000 frozen=false Lattice="15.00000000 0.00000000 0.00000000 0.00000000 15.00000000 0.00000000 0.00000000 0.00000000 15.00000000" energy_frozen_part=0.00000000 Properties=species:S:1:pos:R:3:velocities:R:3:Z:I:1
H         9.28130653       3.58568613       5.63487558         0.00000000       0.00000000       0.00000000          1
H        11.85737005       4.53850136       6.14507166         0.00000000       0.00000000       0.00000000          1
H         8.45883880       6.16940569       4.96239838         0.00000000       0.00000000       0.00000000          1
H         9.66226441       5.68622298       7.43678667         0.00000000       0.00000000       0.00000000          1
H        11.03490209       7.12223020       5.47260369         0.00000000       0.00000000       0.00000000          1
H        10.65394782       5.02168780       3.67068674         0.00000000       0.00000000       0.00000000          1
6
pbc=[F, F, F] list_num_par=6 energy=-1.26974174 iter=20000 frozen=false Lattice="15.00000000 0.00000000 0.00000000 0.00000000 15.00000000 0.00000000 0.00000000 0.00000000 15.00000000" energy_frozen_part=0.00000000 Properties=species:S:1:pos:R:3:velocities:R:3:Z:I:1
H         9.28132285       3.58571840       5.63488318         0.00000000       0.00000000       0.00000000          1
H        11.85741128       4.53855042       6.14493113         0.00000000       0.00000000       0.00000000          1
H         8.45881556       6.16941919       4.96239603         0.00000000       0.00000000       0.00000000          1
H         9.66237217       5.68629574       7.43673509         0.00000000       0.00000000       0.00000000          1
H        11.03490921       7.12225317       5.47244798         0.00000000       0.00000000       0.00000000          1
H        10.65386527       5.02168183       3.67059419         0.00000000       0.00000000       0.00000000          1
6
pbc=[F, F, F] list_num_par=6 energy=-1.26974174 iter=20000 frozen=false Lattice="15.00000000 0.00000000 0.00000000 0.00000000 15.00000000 0.00000000 0.00000000 0.00000000 15.00000000" energy_frozen_part=0.00000000 Properties=species:S:1:pos:R:3:velocities:R:3:Z:I:1
H         9.28131448       3.58572917       5.63489713         0.00000000       0.00000000       0.00000000          1
H        11.85741436       4.53855450       6.14492651         0.00000000       0.00000000       0.00000000          1
H         8.45881757       6.16943158       4.96240321         0.00000000       0.00000000       0.00000000          1
H         9.66238728       5.68631404       7.43673739         0.00000000       0.00000000       0.00000000          1
H        11.03491568       7.12226102       5.47243047         0.00000000       0.00000000       0.00000000          1
H        10.65385787       5.02167793       3.67059524         0.00000000       0.00000000       0.00000000          1
6
pbc=[F, F, F] list_num_par=6 energy=-1.26974174 iter=20000 frozen=false Lattice="15.00000000 0.00000000 0.00000000 0.00000000 15.00000000 0.00000000 0.00000000 0.00000000 15.00000000" energy_frozen_part=0.00000000 Properties=species:S:1:pos:R:3:velocities:R:3:Z:I:1
H         8.13365715       4.81038756       3.69433311         0.00000000       0.00000000       0.00000000          1
H         9.94085094       4.95185548       5.81996643         0.00000000       0.00000000       0.00000000          1
H         8.73557913       7.45035674       3.00689656         0.00000000       0.00000000       0.00000000          1
H         7.89321669       6.83940795       5.59947095         0.00000000       0.00000000       0.00000000          1
H        10.54276888       7.59182040       5.13252687         0.00000000       0.00000000       0.00000000          1
H        10.78321146       5.56279686       3.22739335         0.00000000       0.00000000       0.00000000          1
6
pbc=[F, F, F] list_num_par=6 energy=-1.26974174 iter=20000 frozen=false Lattice="15.00000000 0.00000000 0.00000000 0.00000000 15.00000000 0.00000000 0.00000000 0.00000000 15.00000000" energy_frozen_part=0.00000000 Properties=species:S:1:pos:R:3:velocities:R:3:Z:I:1
H         8.13278330       4.81135403       3.69311589         0.00000000       0.00000000       0.00000000          1
H         9.94052597       4.95055272       5.81843241         0.00000000       0.00000000       0.00000000          1
H         8.73523119       7.45173218       3.00774838         0.00000000       0.00000000       0.00000000          1
H         7.89333658       6.83882939       5.60001870         0.00000000       0.00000000       0.00000000          1
H        10.54297285       7.59094018       5.13306107         0.00000000       0.00000000       0.00000000          1
H        10.78242304       5.56345918       3.22616406         0.00000000       0.00000000       0.00000000          1
6
pbc=[F, F, F] list_num_par=6 energy=-1.26974174 iter=20000 frozen=false Lattice="15.00000000 0.00000000 0.00000000 0.00000000 15.00000000 0.00000000 0.00000000 0.00000000 15.00000000" energy_frozen_part=0.00000000 Properties=species:S:1:pos:R:3:velocities:R:3:Z:I:1
H         8.13363791       4.81036863       3.69434442         0.00000000       0.00000000       0.00000000          1
H         9.94078700       4.95189218       5.82000987         0.00000000       0.00000000       0.00000000          1
H         8.73550049       7.45034579       3.00690228         0.00000000       0.00000000       0.00000000          1
H         7.89310167       6.83938697       5.59946394         0.00000000       0.00000000       0.00000000          1
H        10.54264725       7.59186980       5.13257496         0.00000000       0.00000000       0.00000000          1
H        10.78317849       5.56285408       3.22744398         0.00000000       0.00000000       0.00000000          1
6
pbc=[F, F, F] list_num_par=6 energy=-1.26974174 iter=20000 frozen=false Lattice="15.00000000 0.00000000 0.00000000 0.00000000 15.00000000 0.00000000 0.00000000 0.00000000 15.00000000" energy_frozen_part=0.00000000 Properties=species:S:1:pos:R:3:velocities:R:3:Z:I:1
H         8.13283084       4.81129387       3.69314825         0.00000000       0.00000000       0.00000000          1
H         9.94056253       4.95058866       5.81847431         0.00000000       0.00000000       0.00000000          1
H         8.73523032       7.45167190       3.00772243         0.00000000       0.00000000       0.00000000          1
H         7.89333216       6.83881511       5.59999774         0.00000000       0.00000000       0.00000000          1
H        10.54296508       7.59096198       5.13304323         0.00000000       0.00000000       0.00000000          1
H        10.78245241       5.56344102       3.22619282         0.00000000       0.00000000       0.00000000          1
6
pbc=[F, F, F] list_num_par=6 energy=-1.26974174 iter=20000 frozen=false Lattice="15.00000000 0.00000000 0.00000000 0.00000000 15.00000000 0.00000000 0.00000000 0.00000000 15.00000000" energy_frozen_part=0.00000000 Properties=species:S:1:pos:R:3:velocities:R:3:Z:I:1
H         8.13278895       4.81134495       3.69311340         0.00000000       0.00000000       0.00000000          1
H         9.94053278       4.95055172       5.81843093         0.00000000       0.00000000       0.00000000          1
H         8.73522575       7.45173056       3.00774729         0.00000000       0.00000000       0.00000000          1
H         7.89333392       6.83882792       5.60001772         0.00000000       0.00000000       0.00000000          1
H        10.54296583       7.59093985       5.13306572         0.00000000       0.00000000       0.00000000          1
H        10.78242732       5.56346339       3.22616247         0.00000000       0.00000000       0.00000000          1
6
pbc=[F, F, F] list_num_par=6 energy=-1.26974174 iter=20000 frozen=false Lattice="15.00000000 0.00000000 0.00000000 0.00000000 15.00000000 0.00000000 0.00000000 0.00000000 15.00000000" energy_frozen_part=0.00000000 Properties=species:S:1:pos:R:3:velocities:R:3:Z:I:1
H         9.28135984       3.58555955       5.63488620         0.00000000       0.00000000       0.00000000          1
H        11.85740784       4.53843511       6.14504090         0.00000000       0.00000000       0.00000000          1
H         8.45879640       6.16927704       4.96251647         0.00000000       0.00000000       0.00000000          1
H         9.66230669       5.68605360       7.43685774         0.00000000       0.00000000       0.00000000          1
H        11.03485292       7.12215264       5.47267404         0.00000000       0.00000000       0.00000000          1
H        10.65389749       5.02165807       3.67070253         0.00000000       0.00000000       0.00000000          1
6
pbc=[F, F, F] list_num_par=6 energy=-1.26974174 iter=20000 frozen=false Lattice="15.00000000 0.00000000 0.00000000 0.00000000 15.00000000 0.00000000 0.00000000 0.00000000 15.00000000" energy_frozen_part=0.00000000 Properties=species:S:1:pos:R:3:velocities:R:3:Z:I:1
H         8.13364797       4.81038564       3.69432390         0.00000000       0.00000000       0.00000000          1
H         9.94078248       4.95188211       5.82000938         0.00000000       0.00000000       0.00000000          1
H         8.73551207       7.45036431       3.00690941         0.00000000       0.00000000       0.00000000          1
H         7.89310236       6.83938201       5.59946891         0.00000000       0.00000000       0.00000000          1
H        10.54264014       7.59186479       5.13259514         0.00000000       0.00000000       0.00000000          1
H        10.78319142       5.56286453       3.22745273         0.00000000       0.00000000       0.00000000          1
6
pbc=[F, F, F] list_num_par=6 energy=-1.26974174 iter=20000 frozen=false Lattice="15.00000000 0.00000000 0.00000000 0.00000000 15.00000000 0.00000000 0.00000000 0.00000000 15.00000000" energy_frozen_part=0.00000000 Properties=species:S:1:pos:R:3:velocities:R:3:Z:I:1
H         8.13368845       4.81036661       3.69433147         0.00000000       0.00000000       0.00000000          1
H         9.94080875       4.95188745       5.82002424         0.00000000       0.00000000       0.00000000          1
H         8.73554234       7.45035208       3.00690896         0.00000000       0.00000000       0.00000000          1
H         7.89312888       6.83938298       5.59946209         0.00000000       0.00000000       0.00000000          1
H        10.54267477       7.59186458       5.13259783         0.00000000       0.00000000       0.00000000          1
H        10.78322888       5.56285193       3.22746760         0.00000000       0.00000000       0.00000000          1
6
pbc=[F, F, F] list_num_par=6 energy=-1.26974174 iter=20000 frozen=false Lattice="15.00000000 0.00000000 0.00000000 0.00000000 15.00000000 0.00000000 0.00000000 0.00000000 15.00000000" energy_frozen_part=0.00000000 Properties=species:S:1:pos:R:3:velocities:R:3:Z:I:1
H         8.13368788       4.81035527       3.69435882         0.00000000       0.00000000       0.00000000          1
H         9.94081290       4.95190337       5.82004580         0.00000000       0.00000000       0.00000000          1
H         8.73554675       7.45032885       3.00690415         0.00000000       0.00000000       0.00000000          1
H         7.89312935       6.83939277       5.59946241         0.00000000       0.00000000       0.00000000          1
H        10.54267604       7.59187418       5.13258099         0.00000000       0.00000000       0.00000000          1
H        10.78323165       5.56283843       3.22747712         0.00000000       0.00000000       0.00000000          1
6
pbc=[F, F, F] list_num_par=6 energy=-1.26974174 iter=20000 frozen=false Lattice="15.00000000 0.00000000 0.00000000 0.00000000 15.00000000 0.00000000 0.00000000 0.00000000 15.00000000" energy_frozen_part=0.00000000 Properties=species:S:1:pos:R:3:velocities:R:3:Z:I:1
H         8.13280113       4.81136374       3.69310507         0.00000000       0.00000000       0.00000000          1
H         9.94052940       4.95055955       5.81843012         0.00000000       0.00000000       0.00000000          1
H         8.73526999       7.45173877       3.00772922         0.00000000       0.00000000       0.00000000          1
H         7.89335850       6.83885078       5.59999661         0.00000000       0.00000000       0.00000000          1
H        10.54299691       7.59094086       5.13306333         0.00000000       0.00000000       0.00000000          1
H        10.78244586       5.56345298       3.22617044         0.00000000       0.00000000       0.00000000          1
6
pbc=[F, F, F] list_num_par=6 energy=-1.26974174 iter=20000 frozen=false Lattice="15.00000000 0.00000000 0.00000000 0.00000000 15.00000000 0.00000000 0.00000000 0.00000000 15.00000000" energy_frozen_part=0.00000000 Properties=species:S:1:pos:R:3:velocities:R:3:Z:I:1
H         8.13365417       4.81038023       3.69437923         0.00000000       0.00000000       0.00000000          1
H         9.94086980       4.95189662       5.81998408         0.00000000       0.00000000       0.00000000          1
H         8.73553566       7.45033477       3.00688474         0.00000000       0.00000000       0.00000000          1
H         7.89321648       6.83942531       5.59948743         0.00000000       0.00000000       0.00000000          1
H        10.54275358       7.59185357       5.13248778         0.00000000       0.00000000       0.00000000          1
H        10.78319306       5.56280242       3.22738599         0.00000000       0.00000000       0.00000000          1
6
pbc=[F, F, F] list_num_par=6 energy=-1.26974174 iter=20000 frozen=false Lattice="15.00000000 0.00000000 0.00000000 0.00000000 15.00000000 0.00000000 0.00000000 0.00000000 15.00000000" energy_frozen_part=0.00000000 Properties=species:S:1:pos:R:3:velocities:R:3:Z:I:1
H         8.13009704       4.81175043       3.69314167         0.00000000       0.00000000       0.00000000          1
H         9.93833359       4.95095814       5.81804030         0.00000000       0.00000000       0.00000000          1
H         8.73333459       7.45170999       3.00684854         0.00000000       0.00000000       0.00000000          1
H         7.89176602       6.83989415       5.59947913         0.00000000       0.00000000       0.00000000          1
H        10.54157828       7.59091853       5.13174095         0.00000000       0.00000000       0.00000000          1
H        10.77990666       5.56277040       3.22541225         0.00000000       0.00000000       0.00000000          1
6
pbc=[F, F, F] list_num_par=6 energy=-1.26974174 iter=20000 frozen=false Lattice="15.00000000 0.00000000 0.00000000 0.00000000 15.00000000 0.00000000 0.00000000 0.00000000 15.00000000" energy_frozen_part=0.00000000 Properties=species:S:1:pos:R:3:velocities:R:3:Z:I:1
H         9.28131163       3.58573200       5.63490738         0.00000000       0.00000000       0.00000000          1
H        11.85740820       4.53855674       6.14495091         0.00000000       0.00000000       0.00000000          1
H         8.45881949       6.16943416       4.96240430         0.00000000       0.00000000       0.00000000          1
H         9.66237134       5.68632265       7.43674110         0.00000000       0.00000000       0.00000000          1
H        11.03491743       7.12225938       5.47243354         0.00000000       0.00000000       0.00000000          1
H        10.65386101       5.02167231       3.67060495         0.00000000       0.00000000       0.00000000          1
6
pbc=[F, F, F] list_num_par=6 energy=-1.26974174 iter=20000 frozen=false Lattice="15.00000000 0.00000000 0.00000000 0.00000000 15.00000000 0.00000000 0.00000000 0.00000000 15.00000000" energy_frozen_part=0.00000000 Properties=species:S:1:pos:R:3:velocities:R:3:Z:I:1
H         9.28131731       3.58572157       5.63490304         0.00000000       0.00000000       0.00000000          1
H        11.85741436       4.53855450       6.14492651         0.00000000       0.00000000       0.00000000          1
H         8.45882114       6.16943277       4.96240369         0.00000000       0.00000000       0.00000000          1
H         9.66238004       5.68630986       7.43673330         0.00000000       0.00000000       0.00000000          1
H        11.03491716       7.12225660       5.47243096         0.00000000       0.00000000       0.00000000          1
H        10.65384784       5.02166965       3.67060039         0.00000000       0.00000000       0.00000000          1
6
pbc=[F, F, F] list_num_par=6 energy=-1.26974174 iter=20000 frozen=false Lattice="15.00000000 0.00000000 0.00000000 0.00000000 15.00000000 0.00000000 0.00000000 0.00000000 15.00000000" energy_frozen_part=0.00000000 Properties=species:S:1:pos:R:3:velocities:R:3:Z:I:1
H         8.13360405       4.81021166       3.69438277         0.00000000       0.00000000       0.00000000          1
H         9.94081446       4.95182302       5.81999220         0.00000000       0.00000000       0.00000000          1
H         8.73544917       7.45015561       3.00680255         0.00000000       0.00000000       0.00000000          1
H         7.89312710       6.83931307       5.59942246         0.00000000       0.00000000       0.00000000          1
H        10.54265072       7.59177377       5.13242097         0.00000000       0.00000000       0.00000000          1
H        10.78313342       5.56266260       3.22738082         0.00000000       0.00000000       0.00000000          1
6
pbc=[F, F, F] list_num_par=6 energy=-1.26974174 iter=20000 frozen=false Lattice="15.00000000 0.00000000 0.00000000 0.00000000 15.00000000 0.00000000 0.00000000 0.00000000 15.00000000" energy_frozen_part=0.00000000 Properties=species:S:1:pos:R:3:velocities:R:3:Z:I:1
H         8.13010434       4.81174423       3.69314110         0.00000000       0.00000000       0.00000000          1
H         9.93835218       4.95095083       5.81803466         0.00000000       0.00000000       0.00000000          1
H         8.73332735       7.45171132       3.00685641         0.00000000       0.00000000       0.00000000          1
H         7.89177253       6.83987614       5.59948714         0.00000000       0.00000000       0.00000000          1
H        10.54157184       7.59091576       5.13175197         0.00000000       0.00000000       0.00000000          1
H        10.77990206       5.56278453       3.22539720         0.00000000       0.00000000       0.00000000          1
6
pbc=[F, F, F] list_num_par=6 energy=-1.26974174 iter=20000 frozen=false Lattice="15.00000000 0.00000000 0.00000000 0.00000000 15.00000000 0.00000000 0.00000000 0.00000000 15.00000000" energy_frozen_part=0.00000000 Properties=species:S:1:pos:R:3:velocities:R:3:Z:I:1
H         9.28143015       3.58565744       5.63516345         0.00000000       0.00000000       0.00000000          1
H        11.85748351       4.53882891       6.14476132         0.00000000       0.00000000       0.00000000          1
H         8.45856008       6.16920064       4.96249377         0.00000000       0.00000000       0.00000000          1
H         9.66248458       5.68648265       7.43672868         0.00000000       0.00000000       0.00000000          1
H        11.03460885       7.12237091       5.47209088         0.00000000       0.00000000       0.00000000          1
H        10.65355207       5.02154876       3.67052872         0.00000000       0.00000000       0.00000000          1
6
pbc=[F, F, F] list_num_par=6 energy=-1.26974174 iter=20000 frozen=false Lattice="15.00000000 0.00000000 0.00000000 0.00000000 15.00000000 0.00000000 0.00000000 0.00000000 15.00000000" energy_frozen_part=0.00000000 Properties=species:S:1:pos:R:3:velocities:R:3:Z:I:1
H         9.28132378       3.58571856       5.63488745         0.00000000       0.00000000       0.00000000          1
H        11.85740811       4.53855837       6.14494564         0.00000000       0.00000000       0.00000000          1
H         8.45882250       6.16942011       4.96239086         0.00000000       0.00000000       0.00000000          1
H         9.66236226       5.68630871       7.43673031         0.00000000       0.00000000       0.00000000          1
H        11.03491223       7.12226128       5.47244315         0.00000000       0.00000000       0.00000000          1
H        10.65386814       5.02167251       3.67060337         0.00000000       0.00000000       0.00000000          1
6
pbc=[F, F, F] list_num_par=6 energy=-1.26974174 iter=20000 frozen=false Lattice="15.00000000 0.00000000 0.00000000 0.00000000 15.00000000 0.00000000 0.00000000 0.00000000 15.00000000" energy_frozen_part=0.00000000 Properties=species:S:1:pos:R:3:velocities:R:3:Z:I:1
H         9.28132120       3.58572913       5.63489424         0.00000000       0.00000000       0.00000000          1
H        11.85742252       4.53855499       6.14493938         0.00000000       0.00000000       0.00000000          1