6
pbc=[F, F, F] list_num_par=6 energy=10.52573343 iter=9 frozen=false Lattice="15.00000000 0.00000000 0.00000000 0.00000000 15.00000000 0.00000000 0.00000000 0.00000000 15.00000000" energy_frozen_part=0.00000000 Properties=species:S:1:pos:R:3:velocities:R:3:Z:I:1
H         5.68601613      11.50439715       2.45446242         0.00000000       0.00000000       0.00000000          1
H         7.09928990      10.12961904       7.67905750         0.00000000       0.00000000       0.00000000          1
H         2.23980005      12.40450821       9.15475368         0.00000000       0.00000000       0.00000000          1
H         5.58612155      14.86627365      13.28566909         0.00000000       0.00000000       0.00000000          1
H         0.66571531      13.39155163       9.38965452         0.00000000       0.00000000       0.00000000          1
H         4.36261202      10.33884251      14.42931740         0.00000000       0.00000000       0.00000000          1
6
pbc=[F, F, F] list_num_par=6 energy=0.27778223 iter=19 frozen=false Lattice="15.00000000 0.00000000 0.00000000 0.00000000 15.00000000 0.00000000 0.00000000 0.00000000 15.00000000" energy_frozen_part=0.00000000 Properties=species:S:1:pos:R:3:velocities:R:3:Z:I:1
H        11.82059102      13.74061994       4.06678909         0.00000000       0.00000000       0.00000000          1
H         0.97226665      12.59030483       1.54888672         0.00000000       0.00000000       0.00000000          1
H         6.75405891      11.34961406      14.73974899         0.00000000       0.00000000       0.00000000          1
H        12.50182073       4.16048263       6.73244850         0.00000000       0.00000000       0.00000000          1
H         6.57419583      10.18754109       4.73205413         0.00000000       0.00000000       0.00000000          1
H         2.43147486      10.77271553       1.77200460         0.00000000       0.00000000       0.00000000          1
6
pbc=[F, F, F] list_num_par=6 energy=-0.00189147 iter=29 frozen=false Lattice="15.00000000 0.00000000 0.00000000 0.00000000 15.00000000 0.00000000 0.00000000 0.00000000 15.00000000" energy_frozen_part=0.00000000 Properties=species:S:1:pos:R:3:velocities:R:3:Z:I:1
H        12.35052546       8.93633192       1.67574354         0.00000000       0.00000000       0.00000000          1
H         2.28940597       3.64231544       1.35008659         0.00000000       0.00000000       0.00000000          1
H        10.75745911      14.17350829      11.02848010         0.00000000       0.00000000       0.00000000          1
H         8.71123299       0.16253651       6.61132470         0.00000000       0.00000000       0.00000000          1
H        12.33202882       1.66283148      12.11875687         0.00000000       0.00000000       0.00000000          1
H         5.49529182      10.69847429       8.42418272         0.00000000       0.00000000       0.00000000          1
6
pbc=[F, F, F] list_num_par=6 energy=-0.00447783 iter=39 frozen=false Lattice="15.00000000 0.00000000 0.00000000 0.00000000 15.00000000 0.00000000 0.00000000 0.00000000 15.00000000" energy_frozen_part=0.00000000 Properties=species:S:1:pos:R:3:velocities:R:3:Z:I:1
H         7.23463876      12.66649034       3.20881502         0.00000000       0.00000000       0.00000000          1
H         2.87403092       9.53713580       8.80703329         0.00000000       0.00000000       0.00000000          1
H         1.80140106      13.76088709      12.15491624         0.00000000       0.00000000       0.00000000          1
H        13.28943110       3.63209288       3.26960476         0.00000000       0.00000000       0.00000000          1
H         6.56817636       1.44770032      12.05059496         0.00000000       0.00000000       0.00000000          1
H        14.27719213       5.11486985      10.35099888         0.00000000       0.00000000       0.00000000          1
6
pbc=[F, F, F] list_num_par=6 energy=-0.00723781 iter=49 frozen=false Lattice="15.00000000 0.00000000 0.00000000 0.00000000 15.00000000 0.00000000 0.00000000 0.00000000 15.00000000" energy_frozen_part=0.00000000 Properties=species:S:1:pos:R:3:velocities:R:3:Z:I:1
H         4.60679849      12.33288298       7.12520090         0.00000000       0.00000000       0.00000000          1
H        10.17837430       7.25845793      13.06752060         0.00000000       0.00000000       0.00000000          1
H        13.13071528       0.43077770       0.30173260         0.00000000       0.00000000       0.00000000          1
H        10.70038748       7.30285966       5.52740233         0.00000000       0.00000000       0.00000000          1
H         4.30475767       9.68206835       2.85644293         0.00000000       0.00000000       0.00000000          1
H         4.07889815       1.23601290       7.44122568         0.00000000       0.00000000       0.00000000          1
6
pbc=[F, F, F] list_num_par=6 energy=-0.00911560 iter=59 frozen=false Lattice="15.00000000 0.00000000 0.00000000 0.00000000 15.00000000 0.00000000 0.00000000 0.00000000 15.00000000" energy_frozen_part=0.00000000 Properties=species:S:1:pos:R:3:velocities:R:3:Z:I:1
H         9.28385649      10.64438628       7.23420310         0.00000000       0.00000000       0.00000000          1
H         1.90310657      10.63322639       6.70910479         0.00000000       0.00000000       0.00000000          1
H        11.45780706       5.96628658       7.66466093         0.00000000       0.00000000       0.00000000          1
H        11.95560789       9.91584153      12.64950622         0.00000000       0.00000000       0.00000000          1
H        13.62882453      13.30378327       0.60741816         0.00000000       0.00000000       0.00000000          1
H        12.29216407       1.63261610       1.28153537         0.00000000       0.00000000       0.00000000          1
6
pbc=[F, F, F] list_num_par=6 energy=-0.01187555 iter=69 frozen=false Lattice="15.00000000 0.00000000 0.00000000 0.00000000 15.00000000 0.00000000 0.00000000 0.00000000 15.00000000" energy_frozen_part=0.00000000 Properties=species:S:1:pos:R:3:velocities:R:3:Z:I:1
H         7.51794216      11.52597736       5.51840634         0.00000000       0.00000000       0.00000000          1
H        10.00459755       2.60830665       1.22955321         0.00000000       0.00000000       0.00000000          1
H         8.01132453       5.61263833       4.55016645         0.00000000       0.00000000       0.00000000          1
H         2.69142350       2.22739337       8.43677561         0.00000000       0.00000000       0.00000000          1
H        14.53973176      12.86512823       3.07088722         0.00000000       0.00000000       0.00000000          1
H         5.09377128       0.84543278      13.66253762         0.00000000       0.00000000       0.00000000          1
6
pbc=[F, F, F] list_num_par=6 energy=-0.01726045 iter=79 frozen=false Lattice="15.00000000 0.00000000 0.00000000 0.00000000 15.00000000 0.00000000 0.00000000 0.00000000 15.00000000" energy_frozen_part=0.00000000 Properties=species:S:1:pos:R:3:velocities:R:3:Z:I:1
H         8.16570808      12.05608826       5.47836692         0.00000000       0.00000000       0.00000000          1
H         0.32150777       3.74624925       9.80529896         0.00000000       0.00000000       0.00000000          1
H         8.22824703       0.49178919       1.24881845         0.00000000       0.00000000       0.00000000          1
H        11.37547463       3.96425482      12.73052658         0.00000000       0.00000000       0.00000000          1
H         7.13809407       4.39857695      12.65455999         0.00000000       0.00000000       0.00000000          1
H        12.81315306       9.91305777       1.48488927         0.00000000       0.00000000       0.00000000          1
6
pbc=[F, F, F] list_num_par=6 energy=-0.02140864 iter=89 frozen=false Lattice="15.00000000 0.00000000 0.00000000 0.00000000 15.00000000 0.00000000 0.00000000 0.00000000 15.00000000" energy_frozen_part=0.00000000 Properties=species:S:1:pos:R:3:velocities:R:3:Z:I:1
H         2.99479816       0.39805341       9.11415292         0.00000000       0.00000000       0.00000000          1
H         2.54952872       7.88192882       3.15965664         0.00000000       0.00000000       0.00000000          1
H         9.76771829       1.71010888      14.25798506         0.00000000       0.00000000       0.00000000          1
H         7.23734627       7.71122704       3.98886064         0.00000000       0.00000000       0.00000000          1
H         3.73922043      10.01861214       7.97829889         0.00000000       0.00000000       0.00000000          1
H         6.04443594       6.98255005      11.39937518         0.00000000       0.00000000       0.00000000          1
6
pbc=[F, F, F] list_num_par=6 energy=-0.02587239 iter=99 frozen=false Lattice="15.00000000 0.00000000 0.00000000 0.00000000 15.00000000 0.00000000 0.00000000 0.00000000 15.00000000" energy_frozen_part=0.00000000 Properties=species:S:1:pos:R:3:velocities:R:3:Z:I:1
H         6.01374005      14.33755733       9.16867678         0.00000000       0.00000000       0.00000000          1
H        14.35852305       7.50956551       4.73019418         0.00000000       0.00000000       0.00000000          1
H        13.33045864       0.85839910       9.91479955         0.00000000       0.00000000       0.00000000          1
H         6.75914632       5.06246868       2.69897020         0.00000000       0.00000000       0.00000000          1
H         3.62750178       8.72775643       5.84145616         0.00000000       0.00000000       0.00000000          1
H         8.07962933       2.92427980       2.94055491         0.00000000       0.00000000       0.00000000          1
6
pbc=[F, F, F] list_num_par=6 energy=-0.03059840 iter=109 frozen=false Lattice="15.00000000 0.00000000 0.00000000 0.00000000 15.00000000 0.00000000 0.00000000 0.00000000 15.00000000" energy_frozen_part=0.00000000 Properties=species:S:1:pos:R:3:velocities:R:3:Z:I:1
H        14.53795805       5.71571529       8.98724139         0.00000000       0.00000000       0.00000000          1
H        10.85591359      13.36910447       7.43706781         0.00000000       0.00000000       0.00000000          1
H        10.71489794       1.97960021      13.36372129         0.00000000       0.00000000       0.00000000          1
H        12.27258910       0.87832028       8.01190203         0.00000000       0.00000000       0.00000000          1
H        13.59351911       9.46502977       7.04101164         0.00000000       0.00000000       0.00000000          1
H        14.75117974       7.53685087       0.57979095         0.00000000       0.00000000       0.00000000          1
6
pbc=[F, F, F] list_num_par=6 energy=-0.03622825 iter=119 frozen=false Lattice="15.00000000 0.00000000 0.00000000 0.00000000 15.00000000 0.00000000 0.00000000 0.00000000 15.00000000" energy_frozen_part=0.00000000 Properties=species:S:1:pos:R:3:velocities:R:3:Z:I:1
H         0.51203561       0.58673576      13.39446739         0.00000000       0.00000000       0.00000000          1
H        10.76463052      14.97473882       5.63562135         0.00000000       0.00000000       0.00000000          1
H         6.02532254       7.00700192       3.93502540         0.00000000       0.00000000       0.00000000          1
H         8.42859467       6.86921222       1.05904982         0.00000000       0.00000000       0.00000000          1
H         8.88651712      11.59530569      12.32106777         0.00000000       0.00000000       0.00000000          1
H        12.97447044       8.14341439      12.90150582         0.00000000       0.00000000       0.00000000          1
6
pbc=[F, F, F] list_num_par=6 energy=-0.04072165 iter=129 frozen=false Lattice="15.00000000 0.00000000 0.00000000 0.00000000 15.00000000 0.00000000 0.00000000 0.00000000 15.00000000" energy_frozen_part=0.00000000 Properties=species:S:1:pos:R:3:velocities:R:3:Z:I:1
H        10.96015587       1.09861406      10.81682971         0.00000000       0.00000000       0.00000000          1
H         7.54198867       1.98553285       4.53160858         0.00000000       0.00000000       0.00000000          1
H         0.75262008      13.18051761      10.35818095         0.00000000       0.00000000       0.00000000          1
H         0.39876218       2.56468368      13.38393831         0.00000000       0.00000000       0.00000000          1
H         5.90250997       7.10627944      11.22423312         0.00000000       0.00000000       0.00000000          1
H        13.26347309       3.41542769      12.37113375         0.00000000       0.00000000       0.00000000          1
6
pbc=[F, F, F] list_num_par=6 energy=-0.04870634 iter=139 frozen=false Lattice="15.00000000 0.00000000 0.00000000 0.00000000 15.00000000 0.00000000 0.00000000 0.00000000 15.00000000" energy_frozen_part=0.00000000 Properties=species:S:1:pos:R:3:velocities:R:3:Z:I:1
H         1.58756661      14.32273222      13.91262137         0.00000000       0.00000000       0.00000000          1
H         5.98128963       3.70222474      11.96988864         0.00000000       0.00000000       0.00000000          1
H        14.18327538       7.33107761      14.07823025         0.00000000       0.00000000       0.00000000          1
H        11.23434924      14.63948785       5.42161916         0.00000000       0.00000000       0.00000000          1
H        10.91123788       8.91798426      11.97326205         0.00000000       0.00000000       0.00000000          1
H        13.00005246      13.91430319       8.71391399         0.00000000       0.00000000       0.00000000          1
6
pbc=[F, F, F] list_num_par=6 energy=-0.05237130 iter=149 frozen=false Lattice="15.00000000 0.00000000 0.00000000 0.00000000 15.00000000 0.00000000 0.00000000 0.00000000 15.00000000" energy_frozen_part=0.00000000 Properties=species:S:1:pos:R:3:velocities:R:3:Z:I:1
H         2.98644778       0.63421465      10.02546740         0.00000000       0.00000000       0.00000000          1
H         3.35929489       8.48303750       3.55837777         0.00000000       0.00000000       0.00000000          1
H         9.66554079       2.46507260      13.58674299         0.00000000       0.00000000       0.00000000          1
H         7.36848236       8.75966063       3.46735938         0.00000000       0.00000000       0.00000000          1
H         3.58605327       9.72206750       7.41067380         0.00000000       0.00000000       0.00000000          1
H         6.10721421       6.95422088      11.36428641         0.00000000       0.00000000       0.00000000          1
6
pbc=[F, F, F] list_num_par=6 energy=-0.05890096 iter=159 frozen=false Lattice="15.00000000 0.00000000 0.00000000 0.00000000 15.00000000 0.00000000 0.00000000 0.00000000 15.00000000" energy_frozen_part=0.00000000 Properties=species:S:1:pos:R:3:velocities:R:3:Z:I:1
H        14.31938008       4.46052320       2.10410670         0.00000000       0.00000000       0.00000000          1
H         0.77603581       4.91421802       3.15484332         0.00000000       0.00000000       0.00000000          1
H        12.51740472       0.75120524       2.29510502         0.00000000       0.00000000       0.00000000          1
H         8.60691017       0.83045582      11.30426693         0.00000000       0.00000000       0.00000000          1
H         8.08211466       3.06155458      14.67180744         0.00000000       0.00000000       0.00000000          1
H        10.50780463       3.79030543       4.90422697         0.00000000       0.00000000       0.00000000          1
6
pbc=[F, F, F] list_num_par=6 energy=-0.06193884 iter=169 frozen=false Lattice="15.00000000 0.00000000 0.00000000 0.00000000 15.00000000 0.00000000 0.00000000 0.00000000 15.00000000" energy_frozen_part=0.00000000 Properties=species:S:1:pos:R:3:velocities:R:3:Z:I:1
H         2.34321782      12.39061828       8.30937166         0.00000000       0.00000000       0.00000000          1
H         0.30003220       6.85828206       4.61629746         0.00000000       0.00000000       0.00000000          1
H        12.54043290       5.03919934       6.35859543         0.00000000       0.00000000       0.00000000          1
H         0.38291589       8.08542901      11.91845045         0.00000000       0.00000000       0.00000000          1
H        11.45343956      10.37272760       0.09001469         0.00000000       0.00000000       0.00000000          1
H         2.64720243       7.05007054       7.10386663         0.00000000       0.00000000       0.00000000          1
6
pbc=[F, F, F] list_num_par=6 energy=-0.06707853 iter=179 frozen=false Lattice="15.00000000 0.00000000 0.00000000 0.00000000 15.00000000 0.00000000 0.00000000 0.00000000 15.00000000" energy_frozen_part=0.00000000 Properties=species:S:1:pos:R:3:velocities:R:3:Z:I:1
H         4.48768196      11.12920203       7.54109918         0.00000000       0.00000000       0.00000000          1
H        12.92667207       3.95613971      13.46908048         0.00000000       0.00000000       0.00000000          1
H         3.90228942       3.39603351       0.32816139         0.00000000       0.00000000       0.00000000          1
H         7.38953493       8.04208609       4.64705169         0.00000000       0.00000000       0.00000000          1
H        10.00966197       3.67537773      11.83515916         0.00000000       0.00000000       0.00000000          1
H         7.54004041      12.08067001      11.77928674         0.00000000       0.00000000       0.00000000          1
6
pbc=[F, F, F] list_num_par=6 energy=-0.07230974 iter=189 frozen=false Lattice="15.00000000 0.00000000 0.00000000 0.00000000 15.00000000 0.00000000 0.00000000 0.00000000 15.00000000" energy_frozen_part=0.00000000 Properties=species:S:1:pos:R:3:velocities:R:3:Z:I:1
H         0.73278369       8.38361164       1.98188002         0.00000000       0.00000000       0.00000000          1
H        14.88622970       6.92524151       8.76507422         0.00000000       0.00000000       0.00000000          1
H         9.58181817       2.46264501       8.97624527         0.00000000       0.00000000       0.00000000          1
H         1.86806261       5.56535181       0.94570714         0.00000000       0.00000000       0.00000000          1
H         9.95265362      13.18277837      13.28868653         0.00000000       0.00000000       0.00000000          1
H         7.97561868       6.35749972       2.09057134         0.00000000       0.00000000       0.00000000          1
6
pbc=[F, F, F] list_num_par=6 energy=-0.07607010 iter=199 frozen=false Lattice="15.00000000 0.00000000 0.00000000 0.00000000 15.00000000 0.00000000 0.00000000 0.00000000 15.00000000" energy_frozen_part=0.00000000 Properties=species:S:1:pos:R:3:velocities:R:3:Z:I:1
H        14.90419750      13.83543734      11.75344873         0.00000000       0.00000000       0.00000000          1
H         0.76439683       1.88717712       0.62158132         0.00000000       0.00000000       0.00000000          1
H         9.68823192       2.50703473       4.72361182         0.00000000       0.00000000       0.00000000          1
H         7.47232617       8.58553738       4.43256158         0.00000000       0.00000000       0.00000000          1
H         5.64995764       5.01130769       9.27757063         0.00000000       0.00000000       0.00000000          1
H        14.97762935      10.96921244      13.12336633         0.00000000       0.00000000       0.00000000          1
6
pbc=[F, F, F] list_num_par=6 energy=-0.07969861 iter=209 frozen=false Lattice="15.00000000 0.00000000 0.00000000 0.00000000 15.00000000 0.00000000 0.00000000 0.00000000 15.00000000" energy_frozen_part=0.00000000 Properties=species:S:1:pos:R:3:velocities:R:3:Z:I:1
H        14.93451221       8.56278064       3.11622289         0.00000000       0.00000000       0.00000000          1
H        12.95770181       5.80204163       4.34508689         0.00000000       0.00000000       0.00000000          1
H        12.50686178      12.17267600      12.52037933         0.00000000       0.00000000       0.00000000          1
H        14.43191724      12.31094817       3.63543529         0.00000000       0.00000000       0.00000000          1
H        12.26079743       1.58157859       2.69136522         0.00000000       0.00000000       0.00000000          1
H         2.29867228       8.66725446       6.77124086         0.00000000       0.00000000       0.00000000          1
6
pbc=[F, F, F] list_num_par=6 energy=-0.08458330 iter=219 frozen=false Lattice="15.00000000 0.00000000 0.00000000 0.00000000 15.00000000 0.00000000 0.00000000 0.00000000 15.00000000" energy_frozen_part=0.00000000 Properties=species:S:1:pos:R:3:velocities:R:3:Z:I:1
H        14.16941036       0.18882688      13.19732195         0.00000000       0.00000000       0.00000000          1
H         6.32706345       0.03359141       0.82242040         0.00000000       0.00000000       0.00000000          1
H         5.03460044       9.35051736      13.46253329         0.00000000       0.00000000       0.00000000          1
H         7.19755855      12.09327643       7.51254803         0.00000000       0.00000000       0.00000000          1
H         6.53758189      10.26787631       5.12979067         0.00000000       0.00000000       0.00000000          1
H        11.09471354       1.88456016       4.68341159         0.00000000       0.00000000       0.00000000          1
6
pbc=[F, F, F] list_num_par=6 energy=-0.08913557 iter=229 frozen=false Lattice="15.00000000 0.00000000 0.00000000 0.00000000 15.00000000 0.00000000 0.00000000 0.00000000 15.00000000" energy_frozen_part=0.00000000 Properties=species:S:1:pos:R:3:velocities:R:3:Z:I:1
H        12.83352938       8.11145953       8.90610020         0.00000000       0.00000000       0.00000000          1
H        12.84844176       4.20853995      14.80928322         0.00000000       0.00000000       0.00000000          1
H        14.80026210       7.20057737       7.38031066         0.00000000       0.00000000       0.00000000          1
H         1.87987540      11.64913145       5.47214613         0.00000000       0.00000000       0.00000000          1
H        14.46025065      14.80044661       2.65936489         0.00000000       0.00000000       0.00000000          1
H         3.27580437      10.95929089      10.42280723         0.00000000       0.00000000       0.00000000          1
6
pbc=[F, F, F] list_num_par=6 energy=-0.09412544 iter=239 frozen=false Lattice="15.00000000 0.00000000 0.00000000 0.00000000 15.00000000 0.00000000 0.00000000 0.00000000 15.00000000" energy_frozen_part=0.00000000 Properties=species:S:1:pos:R:3:velocities:R:3:Z:I:1
H        11.84424987       8.15816462       5.99209790         0.00000000       0.00000000       0.00000000          1
H        11.22976100      11.25447146      11.73433428         0.00000000       0.00000000       0.00000000          1
H        13.09706380       5.46670577       5.78858433         0.00000000       0.00000000       0.00000000          1
H         3.52975459       9.26717279       3.54277508         0.00000000       0.00000000       0.00000000          1
H        14.34118023      12.84358920       1.58191928         0.00000000       0.00000000       0.00000000          1
H         1.20939143      12.93883410       9.15733028         0.00000000       0.00000000       0.00000000          1
6
pbc=[F, F, F] list_num_par=6 energy=-0.09864638 iter=249 frozen=false Lattice="15.00000000 0.00000000 0.00000000 0.00000000 15.00000000 0.00000000 0.00000000 0.00000000 15.00000000" energy_frozen_part=0.00000000 Properties=species:S:1:pos:R:3:velocities:R:3:Z:I:1
H         4.91671482       9.70611804      13.20144256         0.00000000       0.00000000       0.00000000          1
H         8.27261621      10.06264820      10.13506339         0.00000000       0.00000000       0.00000000          1
H         4.39819232       6.65983434       1.57165230         0.00000000       0.00000000       0.00000000          1
H         1.73817098       0.69338804       5.24268302         0.00000000       0.00000000       0.00000000          1
H         2.54755576       8.49556643       1.03481736         0.00000000       0.00000000       0.00000000          1
H        13.42396871      10.56499632      13.60182108         0.00000000       0.00000000       0.00000000          1
6
pbc=[F, F, F] list_num_par=6 energy=-0.10008095 iter=259 frozen=false Lattice="15.00000000 0.00000000 0.00000000 0.00000000 15.00000000 0.00000000 0.00000000 0.00000000 15.00000000" energy_frozen_part=0.00000000 Properties=species:S:1:pos:R:3:velocities:R:3:Z:I:1
H         4.47922177      10.47761034       3.00422705         0.00000000       0.00000000       0.00000000          1
H        12.40914172      10.13627042      14.89743170         0.00000000       0.00000000       0.00000000          1
H        11.30876193       2.61447411       6.61714423         0.00000000       0.00000000       0.00000000          1
H         7.64011227       4.17946990      12.79788995         0.00000000       0.00000000       0.00000000          1
H         3.88074795       0.82377126       8.56010757         0.00000000       0.00000000       0.00000000          1
H        12.15408391      10.71046467      12.08180391         0.00000000       0.00000000       0.00000000          1
6
pbc=[F, F, F] list_num_par=6 energy=-0.10260893 iter=269 frozen=false Lattice="15.00000000 0.00000000 0.00000000 0.00000000 15.00000000 0.00000000 0.00000000 0.00000000 15.00000000" energy_frozen_part=0.00000000 Properties=species:S:1:pos:R:3:velocities:R:3:Z:I:1
H         6.03932307      14.42552548       9.32063181         0.00000000       0.00000000       0.00000000          1
H        14.35496626       7.15675082       4.89900962         0.00000000       0.00000000       0.00000000          1
H        13.46106200       0.95842053      10.17921809         0.00000000       0.00000000       0.00000000          1
H         6.75400630       5.32913629       2.66623354         0.00000000       0.00000000       0.00000000          1
H         3.76983187       8.79578855       5.80618301         0.00000000       0.00000000       0.00000000          1
H         8.25087731       2.87552256       2.93228164         0.00000000       0.00000000       0.00000000          1
6
pbc=[F, F, F] list_num_par=6 energy=-0.10607598 iter=279 frozen=false Lattice="15.00000000 0.00000000 0.00000000 0.00000000 15.00000000 0.00000000 0.00000000 0.00000000 15.00000000" energy_frozen_part=0.00000000 Properties=species:S:1:pos:R:3:velocities:R:3:Z:I:1
H         3.63342451       5.47474872      13.90297596         0.00000000       0.00000000       0.00000000          1
H        13.47916627       3.44936587      12.18888457         0.00000000       0.00000000       0.00000000          1
H         4.31169283       1.15407329       6.05921760         0.00000000       0.00000000       0.00000000          1
H         9.54936741       7.85752518       8.96432513         0.00000000       0.00000000       0.00000000          1
H         7.67284032       5.78464018       9.36716483         0.00000000       0.00000000       0.00000000          1
H        10.49013576      11.08112019       3.26663531         0.00000000       0.00000000       0.00000000          1
6
pbc=[F, F, F] list_num_par=6 energy=-0.10892266 iter=289 frozen=false Lattice="15.00000000 0.00000000 0.00000000 0.00000000 15.00000000 0.00000000 0.00000000 0.00000000 15.00000000" energy_frozen_part=0.00000000 Properties=species:S:1:pos:R:3:velocities:R:3:Z:I:1
H         2.86242071       9.05691850      10.84505507         0.00000000       0.00000000       0.00000000          1
H        11.39700577       7.51073329       5.75333171         0.00000000       0.00000000       0.00000000          1
H         4.77115102      14.50452069       4.89386628         0.00000000       0.00000000       0.00000000          1
H        13.72753957       6.19749317       7.85279547         0.00000000       0.00000000       0.00000000          1
H         3.91088173       6.50372596       2.74936267         0.00000000       0.00000000       0.00000000          1
H         5.53114549       9.40249892       8.74169450         0.00000000       0.00000000       0.00000000          1
6
pbc=[F, F, F] list_num_par=6 energy=-0.11113878 iter=299 frozen=false Lattice="15.00000000 0.00000000 0.00000000 0.00000000 15.00000000 0.00000000 0.00000000 0.00000000 15.00000000" energy_frozen_part=0.00000000 Properties=species:S:1:pos:R:3:velocities:R:3:Z:I:1
H         6.84696729       8.53999008      10.73800310         0.00000000       0.00000000       0.00000000          1
H        14.37803093       9.08370621      14.07423499         0.00000000       0.00000000       0.00000000          1
H         6.57539423       2.17151165       5.57052623         0.00000000       0.00000000       0.00000000          1
H         6.65915102       5.25900212       5.42904157         0.00000000       0.00000000       0.00000000          1
H         8.96018847       4.80995246       2.10491126         0.00000000       0.00000000       0.00000000          1
H         2.31706787       9.61053241      14.44948633         0.00000000       0.00000000       0.00000000          1
6
pbc=[F, F, F] list_num_par=6 energy=-0.11514994 iter=309 frozen=false Lattice="15.00000000 0.00000000 0.00000000 0.00000000 15.00000000 0.00000000 0.00000000 0.00000000 15.00000000" energy_frozen_part=0.00000000 Properties=species:S:1:pos:R:3:velocities:R:3:Z:I:1
H         4.06699852       0.98313219       8.73674691         0.00000000       0.00000000       0.00000000          1
H         4.06199867       8.62108493       1.48091768         0.00000000       0.00000000       0.00000000          1