6
pbc=[F, F, F] list_num_par=6 energy=-1.26974174 iter=20000 frozen=false Lattice="15.00000000 0.00000000 0.00000000 0.00000000 15.00000000 0.00000000 0.00000000 0.00000000 15.00000000" energy_frozen_part=0.00000000 Properties=species:S:1:pos:R:3:velocities:R:3:Z:I:1
H        10.65626451       5.28651640      12.80338941         0.00000000       0.00000000       0.00000000          1
H         9.02125821       3.92714316      14.61533703         0.00000000       0.00000000       0.00000000          1
H         8.78506607       3.43086881      11.87632332         0.00000000       0.00000000       0.00000000          1
H         9.87884751       1.48735865      13.55879399         0.00000000       0.00000000       0.00000000          1
H        11.51385570       2.84672777      11.74684366         0.00000000       0.00000000       0.00000000          1
H        11.75004818       3.34301357      14.48585719         0.00000000       0.00000000       0.00000000          1
6
pbc=[F, F, F] list_num_par=6 energy=-1.26974174 iter=20000 frozen=false Lattice="15.00000000 0.00000000 0.00000000 0.00000000 15.00000000 0.00000000 0.00000000 0.00000000 15.00000000" energy_frozen_part=0.00000000 Properties=species:S:1:pos:R:3:velocities:R:3:Z:I:1
H        10.65615117       5.28654089      12.80332170         0.00000000       0.00000000       0.00000000          1
H         9.02137450       3.92698096      14.61533050         0.00000000       0.00000000       0.00000000          1
H         8.78504193       3.43076484      11.87632266         0.00000000       0.00000000       0.00000000          1
H         9.87910133       1.48729994      13.55866531         0.00000000       0.00000000       0.00000000          1
H        11.51387642       2.84686109      11.74664973         0.00000000       0.00000000       0.00000000          1
H        11.75020369       3.34307521      14.48566563         0.00000000       0.00000000       0.00000000          1
6
pbc=[F, F, F] list_num_par=6 energy=-1.26974174 iter=20000 frozen=false Lattice="15.00000000 0.00000000 0.00000000 0.00000000 15.00000000 0.00000000 0.00000000 0.00000000 15.00000000" energy_frozen_part=0.00000000 Properties=species:S:1:pos:R:3:velocities:R:3:Z:I:1
H         9.21665342       4.22524702      12.66077362         0.00000000       0.00000000       0.00000000          1
H         7.63495797       2.21477525      13.78351748         0.00000000       0.00000000       0.00000000          1
H         8.72725904       1.87318336      11.23508784         0.00000000       0.00000000       0.00000000          1
H         9.69448740       0.37042289      13.38227907         0.00000000       0.00000000       0.00000000          1
H        11.27618281       2.38089630      12.25953997         0.00000000       0.00000000       0.00000000          1
H        10.18388396       2.72248468      14.80796602         0.00000000       0.00000000       0.00000000          1
6
pbc=[F, F, F] list_num_par=6 energy=-1.26974174 iter=20000 frozen=false Lattice="15.00000000 0.00000000 0.00000000 0.00000000 15.00000000 0.00000000 0.00000000 0.00000000 15.00000000" energy_frozen_part=0.00000000 Properties=species:S:1:pos:R:3:velocities:R:3:Z:I:1
H         9.21668735       4.22524995      12.66081715         0.00000000       0.00000000       0.00000000          1
H         7.63497796       2.21471268      13.78341530         0.00000000       0.00000000       0.00000000          1
H         8.72733189       1.87326213      11.23499454         0.00000000       0.00000000       0.00000000          1
H         9.69452305       0.37038730      13.38212542         0.00000000       0.00000000       0.00000000          1
H        11.27623159       2.38093157      12.25953118         0.00000000       0.00000000       0.00000000          1
H        10.18387639       2.72237756      14.80795603         0.00000000       0.00000000       0.00000000          1
6
pbc=[F, F, F] list_num_par=6 energy=-1.26974174 iter=20000 frozen=false Lattice="15.00000000 0.00000000 0.00000000 0.00000000 15.00000000 0.00000000 0.00000000 0.00000000 15.00000000" energy_frozen_part=0.00000000 Properties=species:S:1:pos:R:3:velocities:R:3:Z:I:1
H        10.65626812       5.28652032      12.80339794         0.00000000       0.00000000       0.00000000          1
H         9.02126623       3.92713651      14.61533743         0.00000000       0.00000000       0.00000000          1
H         8.78506821       3.43086927      11.87632532         0.00000000       0.00000000       0.00000000          1
H         9.87885464       1.48735863      13.55879176         0.00000000       0.00000000       0.00000000          1
H        11.51385908       2.84673642      11.74685060         0.00000000       0.00000000       0.00000000          1
H        11.75005785       3.34301300      14.48586475         0.00000000       0.00000000       0.00000000          1
6
pbc=[F, F, F] list_num_par=6 energy=-1.26974174 iter=20000 frozen=false Lattice="15.00000000 0.00000000 0.00000000 0.00000000 15.00000000 0.00000000 0.00000000 0.00000000 15.00000000" energy_frozen_part=0.00000000 Properties=species:S:1:pos:R:3:velocities:R:3:Z:I:1
H        10.65627945       5.28651228      12.80340804         0.00000000       0.00000000       0.00000000          1
H         9.02127130       3.92714026      14.61534655         0.00000000       0.00000000       0.00000000          1
H         8.78507296       3.43087753      11.87632523         0.00000000       0.00000000       0.00000000          1
H         9.87884695       1.48735684      13.55879134         0.00000000       0.00000000       0.00000000          1
H        11.51385763       2.84673049      11.74684936         0.00000000       0.00000000       0.00000000          1
H        11.75005886       3.34299465      14.48586217         0.00000000       0.00000000       0.00000000          1
6
pbc=[F, F, F] list_num_par=6 energy=-1.26974174 iter=20000 frozen=false Lattice="15.00000000 0.00000000 0.00000000 0.00000000 15.00000000 0.00000000 0.00000000 0.00000000 15.00000000" energy_frozen_part=0.00000000 Properties=species:S:1:pos:R:3:velocities:R:3:Z:I:1
H         9.21666885       4.22522968      12.66081459         0.00000000       0.00000000       0.00000000          1
H         7.63496169       2.21468738      13.78341128         0.00000000       0.00000000       0.00000000          1
H         8.72732667       1.87324743      11.23498789         0.00000000       0.00000000       0.00000000          1
H         9.69451303       0.37037140      13.38212959         0.00000000       0.00000000       0.00000000          1
H        11.27622263       2.38091006      12.25953235         0.00000000       0.00000000       0.00000000          1
H        10.18385764       2.72235980      14.80795601         0.00000000       0.00000000       0.00000000          1
6
pbc=[F, F, F] list_num_par=6 energy=-1.26974174 iter=20000 frozen=false Lattice="15.00000000 0.00000000 0.00000000 0.00000000 15.00000000 0.00000000 0.00000000 0.00000000 15.00000000" energy_frozen_part=0.00000000 Properties=species:S:1:pos:R:3:velocities:R:3:Z:I:1
H         9.21663257       4.22523570      12.66075190         0.00000000       0.00000000       0.00000000          1
H         7.63495575       2.21473393      13.78346646         0.00000000       0.00000000       0.00000000          1
H         8.72731224       1.87315501      11.23506243         0.00000000       0.00000000       0.00000000          1
H         9.69452285       0.37041358      13.38228124         0.00000000       0.00000000       0.00000000          1
H        11.27620135       2.38091153      12.25956649         0.00000000       0.00000000       0.00000000          1
H        10.18384962       2.72248802      14.80797212         0.00000000       0.00000000       0.00000000          1
6
pbc=[F, F, F] list_num_par=6 energy=-1.26974174 iter=20000 frozen=false Lattice="15.00000000 0.00000000 0.00000000 0.00000000 15.00000000 0.00000000 0.00000000 0.00000000 15.00000000" energy_frozen_part=0.00000000 Properties=species:S:1:pos:R:3:velocities:R:3:Z:I:1
H        10.65627746       5.28631710      12.80227167         0.00000000       0.00000000       0.00000000          1
H         9.02055853       3.92750316      14.61398291         0.00000000       0.00000000       0.00000000          1
H         8.78565040       3.43016608      11.87505045         0.00000000       0.00000000       0.00000000          1
H         9.87882259       1.48738506      13.55875450         0.00000000       0.00000000       0.00000000          1
H        11.51454635       2.84620550      11.74704102         0.00000000       0.00000000       0.00000000          1
H        11.74945077       3.34353836      14.48597807         0.00000000       0.00000000       0.00000000          1
6
pbc=[F, F, F] list_num_par=6 energy=-1.26974174 iter=20000 frozen=false Lattice="15.00000000 0.00000000 0.00000000 0.00000000 15.00000000 0.00000000 0.00000000 0.00000000 15.00000000" energy_frozen_part=0.00000000 Properties=species:S:1:pos:R:3:velocities:R:3:Z:I:1
H         9.21658249       4.22527418      12.65962275         0.00000000       0.00000000       0.00000000          1
H         7.63444923       2.21530432      13.78263764         0.00000000       0.00000000       0.00000000          1
H         8.72633035       1.87330398      11.23408774         0.00000000       0.00000000       0.00000000          1
H         9.69340037       0.37033780      13.38121462         0.00000000       0.00000000       0.00000000          1
H        11.27552811       2.38030929      12.25820204         0.00000000       0.00000000       0.00000000          1
H        10.18364602       2.72231277      14.80675724         0.00000000       0.00000000       0.00000000          1
6
pbc=[F, F, F] list_num_par=6 energy=-1.26974174 iter=20000 frozen=false Lattice="15.00000000 0.00000000 0.00000000 0.00000000 15.00000000 0.00000000 0.00000000 0.00000000 15.00000000" energy_frozen_part=0.00000000 Properties=species:S:1:pos:R:3:velocities:R:3:Z:I:1
H         9.21665905       4.22526305      12.66082747         0.00000000       0.00000000       0.00000000          1
H         7.63496747       2.21472868      13.78346091         0.00000000       0.00000000       0.00000000          1
H         8.72728958       1.87326652      11.23503143         0.00000000       0.00000000       0.00000000          1
H         9.69451335       0.37040883      13.38216939         0.00000000       0.00000000       0.00000000          1
H        11.27620204       2.38094315      12.25953732         0.00000000       0.00000000       0.00000000          1
H        10.18387716       2.72240838      14.80796682         0.00000000       0.00000000       0.00000000          1
6
pbc=[F, F, F] list_num_par=6 energy=-1.26974174 iter=20000 frozen=false Lattice="15.00000000 0.00000000 0.00000000 0.00000000 15.00000000 0.00000000 0.00000000 0.00000000 15.00000000" energy_frozen_part=0.00000000 Properties=species:S:1:pos:R:3:velocities:R:3:Z:I:1
H         9.21388386       4.22493659      12.66637373         0.00000000       0.00000000       0.00000000          1
H         7.63245419       2.21300219      13.78686062         0.00000000       0.00000000       0.00000000          1
H         8.72220487       1.87573500      11.23676579         0.00000000       0.00000000       0.00000000          1
H         9.69085891       0.36857987      13.38023455         0.00000000       0.00000000       0.00000000          1
H        11.27229840       2.38051383      12.25975856         0.00000000       0.00000000       0.00000000          1
H        10.18254636       2.71777896      14.80985085         0.00000000       0.00000000       0.00000000          1
6
pbc=[F, F, F] list_num_par=6 energy=-1.26974174 iter=20000 frozen=false Lattice="15.00000000 0.00000000 0.00000000 0.00000000 15.00000000 0.00000000 0.00000000 0.00000000 15.00000000" energy_frozen_part=0.00000000 Properties=species:S:1:pos:R:3:velocities:R:3:Z:I:1
H         9.21663541       4.22522492      12.66075007         0.00000000       0.00000000       0.00000000          1
H         7.63495587       2.21473199      13.78346318         0.00000000       0.00000000       0.00000000          1
H         8.72730828       1.87315167      11.23506127         0.00000000       0.00000000       0.00000000          1
H         9.69452248       0.37041524      13.38227734         0.00000000       0.00000000       0.00000000          1
H        11.27620403       2.38090826      12.25956349         0.00000000       0.00000000       0.00000000          1
H        10.18384813       2.72249293      14.80797006         0.00000000       0.00000000       0.00000000          1
6
pbc=[F, F, F] list_num_par=6 energy=-1.26974174 iter=20000 frozen=false Lattice="15.00000000 0.00000000 0.00000000 0.00000000 15.00000000 0.00000000 0.00000000 0.00000000 15.00000000" energy_frozen_part=0.00000000 Properties=species:S:1:pos:R:3:velocities:R:3:Z:I:1
H         9.21662928       4.22523007      12.66085761         0.00000000       0.00000000       0.00000000          1
H         7.63497090       2.21466241      13.78346667         0.00000000       0.00000000       0.00000000          1
H         8.72729001       1.87323553      11.23502893         0.00000000       0.00000000       0.00000000          1
H         9.69454120       0.37037756      13.38214830         0.00000000       0.00000000       0.00000000          1
H        11.27619468       2.38094344      12.25953705         0.00000000       0.00000000       0.00000000          1
H        10.18387417       2.72236737      14.80797781         0.00000000       0.00000000       0.00000000          1
6
pbc=[F, F, F] list_num_par=6 energy=-1.26974174 iter=20000 frozen=false Lattice="15.00000000 0.00000000 0.00000000 0.00000000 15.00000000 0.00000000 0.00000000 0.00000000 15.00000000" energy_frozen_part=0.00000000 Properties=species:S:1:pos:R:3:velocities:R:3:Z:I:1
H         9.21667552       4.22526458      12.66085218         0.00000000       0.00000000       0.00000000          1
H         7.63498642       2.21472742      13.78347869         0.00000000       0.00000000       0.00000000          1
H         8.72729315       1.87328269      11.23503213         0.00000000       0.00000000       0.00000000          1
H         9.69451238       0.37039807      13.38214795         0.00000000       0.00000000       0.00000000          1
H        11.27620696       2.38093832      12.25952451         0.00000000       0.00000000       0.00000000          1
H        10.18390224       2.72237923      14.80796984         0.00000000       0.00000000       0.00000000          1
6
pbc=[F, F, F] list_num_par=6 energy=-1.26974174 iter=20000 frozen=false Lattice="15.00000000 0.00000000 0.00000000 0.00000000 15.00000000 0.00000000 0.00000000 0.00000000 15.00000000" energy_frozen_part=0.00000000 Properties=species:S:1:pos:R:3:velocities:R:3:Z:I:1
H        10.65602616       5.28624568      12.80242029         0.00000000       0.00000000       0.00000000          1
H         9.02048199       3.92715474      14.61409802         0.00000000       0.00000000       0.00000000          1
H         8.78552188       3.43000759      11.87513571         0.00000000       0.00000000       0.00000000          1
H         9.87891123       1.48719278      13.55865714         0.00000000       0.00000000       0.00000000          1
H        11.51445901       2.84628097      11.74697959         0.00000000       0.00000000       0.00000000          1
H        11.74942350       3.34343067      14.48594267         0.00000000       0.00000000       0.00000000          1
6
pbc=[F, F, F] list_num_par=6 energy=-1.26974174 iter=20000 frozen=false Lattice="15.00000000 0.00000000 0.00000000 0.00000000 15.00000000 0.00000000 0.00000000 0.00000000 15.00000000" energy_frozen_part=0.00000000 Properties=species:S:1:pos:R:3:velocities:R:3:Z:I:1
H         9.21658988       4.22527922      12.65962609         0.00000000       0.00000000       0.00000000          1
H         7.63444928       2.21531074      13.78262555         0.00000000       0.00000000       0.00000000          1
H         8.72634295       1.87330550      11.23408092         0.00000000       0.00000000       0.00000000          1
H         9.69339205       0.37034362      13.38121620         0.00000000       0.00000000       0.00000000          1
H        11.27553539       2.38031324      12.25821785         0.00000000       0.00000000       0.00000000          1
H        10.18363429       2.72230801      14.80676544         0.00000000       0.00000000       0.00000000          1
6
pbc=[F, F, F] list_num_par=6 energy=-1.26974174 iter=20000 frozen=false Lattice="15.00000000 0.00000000 0.00000000 0.00000000 15.00000000 0.00000000 0.00000000 0.00000000 15.00000000" energy_frozen_part=0.00000000 Properties=species:S:1:pos:R:3:velocities:R:3:Z:I:1
H        10.65626766       5.28651425      12.80339376         0.00000000       0.00000000       0.00000000          1
H         9.02126022       3.92714941      14.61533893         0.00000000       0.00000000       0.00000000          1
H         8.78505937       3.43087145      11.87631990         0.00000000       0.00000000       0.00000000          1
H         9.87884195       1.48736252      13.55879289         0.00000000       0.00000000       0.00000000          1
H        11.51384948       2.84673213      11.74684705         0.00000000       0.00000000       0.00000000          1
H        11.75005560       3.34300735      14.48586068         0.00000000       0.00000000       0.00000000          1
6
pbc=[F, F, F] list_num_par=6 energy=-1.26974174 iter=20000 frozen=false Lattice="15.00000000 0.00000000 0.00000000 0.00000000 15.00000000 0.00000000 0.00000000 0.00000000 15.00000000" energy_frozen_part=0.00000000 Properties=species:S:1:pos:R:3:velocities:R:3:Z:I:1
H         9.21665266       4.22524397      12.66077257         0.00000000       0.00000000       0.00000000          1
H         7.63495849       2.21477656      13.78351549         0.00000000       0.00000000       0.00000000          1
H         8.72726485       1.87318113      11.23508804         0.00000000       0.00000000       0.00000000          1
H         9.69448654       0.37042237      13.38228747         0.00000000       0.00000000       0.00000000          1
H        11.27618470       2.38089396      12.25954663         0.00000000       0.00000000       0.00000000          1
H        10.18388528       2.72248619      14.80796741         0.00000000       0.00000000       0.00000000          1
6
pbc=[F, F, F] list_num_par=6 energy=-1.26974174 iter=20000 frozen=false Lattice="15.00000000 0.00000000 0.00000000 0.00000000 15.00000000 0.00000000 0.00000000 0.00000000 15.00000000" energy_frozen_part=0.00000000 Properties=species:S:1:pos:R:3:velocities:R:3:Z:I:1
H         9.21665511       4.22522955      12.66084976         0.00000000       0.00000000       0.00000000          1
H         7.63497796       2.21467009      13.78345103         0.00000000       0.00000000       0.00000000          1
H         8.72732807       1.87324314      11.23502333         0.00000000       0.00000000       0.00000000          1
H         9.69454565       0.37037333      13.38215120         0.00000000       0.00000000       0.00000000          1
H        11.27622855       2.38093263      12.25955801         0.00000000       0.00000000       0.00000000          1
H        10.18386872       2.72236410      14.80797899         0.00000000       0.00000000       0.00000000          1
6
pbc=[F, F, F] list_num_par=6 energy=-1.26974174 iter=20000 frozen=false Lattice="15.00000000 0.00000000 0.00000000 0.00000000 15.00000000 0.00000000 0.00000000 0.00000000 15.00000000" energy_frozen_part=0.00000000 Properties=species:S:1:pos:R:3:velocities:R:3:Z:I:1
H         9.21659985       4.22527465      12.65963982         0.00000000       0.00000000       0.00000000          1
H         7.63444855       2.21529858      13.78261597         0.00000000       0.00000000       0.00000000          1
H         8.72636650       1.87331524      11.23407552         0.00000000       0.00000000       0.00000000          1
H         9.69339799       0.37033859      13.38120292         0.00000000       0.00000000       0.00000000          1
H        11.27555139       2.38032211      12.25823164         0.00000000       0.00000000       0.00000000          1
H        10.18363395       2.72229391      14.80677202         0.00000000       0.00000000       0.00000000          1
6
pbc=[F, F, F] list_num_par=6 energy=-1.26974174 iter=20000 frozen=false Lattice="15.00000000 0.00000000 0.00000000 0.00000000 15.00000000 0.00000000 0.00000000 0.00000000 15.00000000" energy_frozen_part=0.00000000 Properties=species:S:1:pos:R:3:velocities:R:3:Z:I:1
H        10.65625855       5.28651746      12.80340336         0.00000000       0.00000000       0.00000000          1
H         9.02125271       3.92714423      14.61534529         0.00000000       0.00000000       0.00000000          1
H         8.78506046       3.43086429      11.87632929         0.00000000       0.00000000       0.00000000          1
H         9.87884983       1.48736557      13.55880404         0.00000000       0.00000000       0.00000000          1
H        11.51385807       2.84674331      11.74686615         0.00000000       0.00000000       0.00000000          1
H        11.75005018       3.34301738      14.48587848         0.00000000       0.00000000       0.00000000          1
6
pbc=[F, F, F] list_num_par=6 energy=-1.26974174 iter=20000 frozen=false Lattice="15.00000000 0.00000000 0.00000000 0.00000000 15.00000000 0.00000000 0.00000000 0.00000000 15.00000000" energy_frozen_part=0.00000000 Properties=species:S:1:pos:R:3:velocities:R:3:Z:I:1
H         9.21666466       4.22524561      12.66083358         0.00000000       0.00000000       0.00000000          1
H         7.63496801       2.21470745      13.78343900         0.00000000       0.00000000       0.00000000          1
H         8.72730985       1.87325118      11.23501604         0.00000000       0.00000000       0.00000000          1
H         9.69451566       0.37038642      13.38214696         0.00000000       0.00000000       0.00000000          1
H        11.27621066       2.38092472      12.25952967         0.00000000       0.00000000       0.00000000          1
H        10.18387384       2.72237683      14.80796135         0.00000000       0.00000000       0.00000000          1
6
pbc=[F, F, F] list_num_par=6 energy=-1.26974174 iter=20000 frozen=false Lattice="15.00000000 0.00000000 0.00000000 0.00000000 15.00000000 0.00000000 0.00000000 0.00000000 15.00000000" energy_frozen_part=0.00000000 Properties=species:S:1:pos:R:3:velocities:R:3:Z:I:1
H         9.21664547       4.22524300      12.66076822         0.00000000       0.00000000       0.00000000          1
H         7.63495755       2.21475645      13.78349474         0.00000000       0.00000000       0.00000000          1
H         8.72727504       1.87318348      11.23507383         0.00000000       0.00000000       0.00000000          1
H         9.69450275       0.37042385      13.38228152         0.00000000       0.00000000       0.00000000          1
H        11.27618717       2.38090322      12.25955115         0.00000000       0.00000000       0.00000000          1
H        10.18387075       2.72248658      14.80797383         0.00000000       0.00000000       0.00000000          1
6
pbc=[F, F, F] list_num_par=6 energy=-1.26974174 iter=20000 frozen=false Lattice="15.00000000 0.00000000 0.00000000 0.00000000 15.00000000 0.00000000 0.00000000 0.00000000 15.00000000" energy_frozen_part=0.00000000 Properties=species:S:1:pos:R:3:velocities:R:3:Z:I:1
H         9.21391081       4.22494827      12.66640070         0.00000000       0.00000000       0.00000000          1
H         7.63243675       2.21302196      13.78684234         0.00000000       0.00000000       0.00000000          1
H         8.72217473       1.87579481      11.23673774         0.00000000       0.00000000       0.00000000          1
H         9.69081107       0.36857454      13.38017833         0.00000000       0.00000000       0.00000000          1
H        11.27228285       2.38050020      12.25973735         0.00000000       0.00000000       0.00000000          1
H        10.18254348       2.71773265      14.80983884         0.00000000       0.00000000       0.00000000          1
6
pbc=[F, F, F] list_num_par=6 energy=-1.26974174 iter=20000 frozen=false Lattice="15.00000000 0.00000000 0.00000000 0.00000000 15.00000000 0.00000000 0.00000000 0.00000000 15.00000000" energy_frozen_part=0.00000000 Properties=species:S:1:pos:R:3:velocities:R:3:Z:I:1
H         9.21662093       4.22521968      12.66071652         0.00000000       0.00000000       0.00000000          1
H         7.63495042       2.21473679      13.78345335         0.00000000       0.00000000       0.00000000          1
H         8.72727539       1.87314077      11.23504056         0.00000000       0.00000000       0.00000000          1
H         9.69450830       0.37040699      13.38225211         0.00000000       0.00000000       0.00000000          1
H        11.27618334       2.38089925      12.25952090         0.00000000       0.00000000       0.00000000          1
H        10.18385329       2.72248279      14.80793167         0.00000000       0.00000000       0.00000000          1
6
pbc=[F, F, F] list_num_par=6 energy=-1.26974174 iter=20000 frozen=false Lattice="15.00000000 0.00000000 0.00000000 0.00000000 15.00000000 0.00000000 0.00000000 0.00000000 15.00000000" energy_frozen_part=0.00000000 Properties=species:S:1:pos:R:3:velocities:R:3:Z:I:1
H         9.21391050       4.22494079      12.66637207         0.00000000       0.00000000       0.00000000          1
H         7.63245943       2.21302433      13.78685701         0.00000000       0.00000000       0.00000000          1
H         8.72217265       1.87576457      11.23674284         0.00000000       0.00000000       0.00000000          1
H         9.69083796       0.36857538      13.38018786         0.00000000       0.00000000       0.00000000          1
H        11.27229307       2.38049228      12.25970591         0.00000000       0.00000000       0.00000000          1
H        10.18257073       2.71775442      14.80981681         0.00000000       0.00000000       0.00000000          1
6
pbc=[F, F, F] list_num_par=6 energy=-1.26974174 iter=20000 frozen=false Lattice="15.00000000 0.00000000 0.00000000 0.00000000 15.00000000 0.00000000 0.00000000 0.00000000 15.00000000" energy_frozen_part=0.00000000 Properties=species:S:1:pos:R:3:velocities:R:3:Z:I:1
H        10.65627336       5.28651261      12.80339622         0.00000000       0.00000000       0.00000000          1
H         9.02126301       3.92713787      14.61533933         0.00000000       0.00000000       0.00000000          1
H         8.78506555       3.43086423      11.87632593         0.00000000       0.00000000       0.00000000          1
H         9.87885119       1.48735449      13.55879639         0.00000000       0.00000000       0.00000000          1
H        11.51385208       2.84672853      11.74684486         0.00000000       0.00000000       0.00000000          1
H        11.75005535       3.34300350      14.48585665         0.00000000       0.00000000       0.00000000          1
6
pbc=[F, F, F] list_num_par=6 energy=-1.26974174 iter=20000 frozen=false Lattice="15.00000000 0.00000000 0.00000000 0.00000000 15.00000000 0.00000000 0.00000000 0.00000000 15.00000000" energy_frozen_part=0.00000000 Properties=species:S:1:pos:R:3:velocities:R:3:Z:I:1
H         9.21670292       4.22521417      12.66082926         0.00000000       0.00000000       0.00000000          1
H         7.63495026       2.21472043      13.78344722         0.00000000       0.00000000       0.00000000          1
H         8.72726531       1.87324576      11.23501110         0.00000000       0.00000000       0.00000000          1
H         9.69443978       0.37034399      13.38213402         0.00000000       0.00000000       0.00000000          1
H        11.27619533       2.38083415      12.25951923         0.00000000       0.00000000       0.00000000          1
H        10.18387626       2.72231011      14.80795855         0.00000000       0.00000000       0.00000000          1
6
pbc=[F, F, F] list_num_par=6 energy=-1.26974174 iter=20000 frozen=false Lattice="15.00000000 0.00000000 0.00000000 0.00000000 15.00000000 0.00000000 0.00000000 0.00000000 15.00000000" energy_frozen_part=0.00000000 Properties=species:S:1:pos:R:3:velocities:R:3:Z:I:1
H         9.21666939       4.22523341      12.66082434         0.00000000       0.00000000       0.00000000          1
H         7.63497288       2.21469430      13.78341910         0.00000000       0.00000000       0.00000000          1
H         8.72732122       1.87324439      11.23499717         0.00000000       0.00000000       0.00000000          1
H         9.69452119       0.37037384      13.38212967         0.00000000       0.00000000       0.00000000          1
H        11.27621986       2.38091350      12.25952724         0.00000000       0.00000000       0.00000000          1
H        10.18386956       2.72235963      14.80795733         0.00000000       0.00000000       0.00000000          1
6
pbc=[F, F, F] list_num_par=6 energy=-1.26974174 iter=20000 frozen=false Lattice="15.00000000 0.00000000 0.00000000 0.00000000 15.00000000 0.00000000 0.00000000 0.00000000 15.00000000" energy_frozen_part=0.00000000 Properties=species:S:1:pos:R:3:velocities:R:3:Z:I:1
H         9.21661122       4.22522191      12.66073934         0.00000000       0.00000000       0.00000000          1
H         7.63495001       2.21471408      13.78345728         0.00000000       0.00000000       0.00000000          1