6
pbc=[F, F, F] list_num_par=6 frozen=false iter=9 energy=5.04532837 Lattice="15.00000000 0.00000000 0.00000000 0.00000000 15.00000000 0.00000000 0.00000000 0.00000000 15.00000000" energy_frozen_part=0.00000000 Properties=species:S:1:pos:R:3:velocities:R:3:Z:I:1
H         2.78214287       6.22888901       1.82020266         0.00000000       0.00000000       0.00000000          1
H        13.21455984       2.97229804      12.80016133         0.00000000       0.00000000       0.00000000          1
H         5.78328164       4.18616372       3.35539283         0.00000000       0.00000000       0.00000000          1
H        13.18440601       2.13968460       6.73795981         0.00000000       0.00000000       0.00000000          1
H         6.30140825       0.14011992       1.64788571         0.00000000       0.00000000       0.00000000          1
H         6.43354608       4.18759629       1.49048131         0.00000000       0.00000000       0.00000000          1
6
pbc=[F, F, F] list_num_par=6 frozen=false iter=19 energy=-0.00165155 Lattice="15.00000000 0.00000000 0.00000000 0.00000000 15.00000000 0.00000000 0.00000000 0.00000000 15.00000000" energy_frozen_part=0.00000000 Properties=species:S:1:pos:R:3:velocities:R:3:Z:I:1
H         6.44127790       2.43983685       6.29044038         0.00000000       0.00000000       0.00000000          1
H        11.48767002       8.66017065      12.38339700         0.00000000       0.00000000       0.00000000          1
H         7.56602299       1.91806974      14.33623679         0.00000000       0.00000000       0.00000000          1
H        10.10397599      14.06516058       5.91912024         0.00000000       0.00000000       0.00000000          1
H         1.72348920       6.91382645       1.83046597         0.00000000       0.00000000       0.00000000          1
H         1.25010581      13.93621258       1.24930094         0.00000000       0.00000000       0.00000000          1
6
pbc=[F, F, F] list_num_par=6 frozen=false iter=29 energy=-0.00382993 Lattice="15.00000000 0.00000000 0.00000000 0.00000000 15.00000000 0.00000000 0.00000000 0.00000000 15.00000000" energy_frozen_part=0.00000000 Properties=species:S:1:pos:R:3:velocities:R:3:Z:I:1
H        11.77325955       4.79936802      14.82428622         0.00000000       0.00000000       0.00000000          1
H         6.25025608       4.94879172       7.13338426         0.00000000       0.00000000       0.00000000          1
H        14.65996345      14.31814368      12.83869767         0.00000000       0.00000000       0.00000000          1
H        14.23132715      10.36294794       8.55907050         0.00000000       0.00000000       0.00000000          1
H         4.76507114      11.49521652       6.83049204         0.00000000       0.00000000       0.00000000          1
H         1.98227526       7.61236481       0.05170408         0.00000000       0.00000000       0.00000000          1
6
pbc=[F, F, F] list_num_par=6 frozen=false iter=39 energy=-0.00730966 Lattice="15.00000000 0.00000000 0.00000000 0.00000000 15.00000000 0.00000000 0.00000000 0.00000000 15.00000000" energy_frozen_part=0.00000000 Properties=species:S:1:pos:R:3:velocities:R:3:Z:I:1
H         9.57710597      10.02049516      13.55235714         0.00000000       0.00000000       0.00000000          1
H         4.35886688      10.88585361      14.61262814         0.00000000       0.00000000       0.00000000          1
H         5.81295749      14.25431207       0.43913717         0.00000000       0.00000000       0.00000000          1
H         6.71551999       0.04884660      11.63553927         0.00000000       0.00000000       0.00000000          1
H        14.58922943       8.39712599      11.69172552         0.00000000       0.00000000       0.00000000          1
H        12.18117539       5.93670540       4.87681317         0.00000000       0.00000000       0.00000000          1
6
pbc=[F, F, F] list_num_par=6 frozen=false iter=49 energy=-0.01009746 Lattice="15.00000000 0.00000000 0.00000000 0.00000000 15.00000000 0.00000000 0.00000000 0.00000000 15.00000000" energy_frozen_part=0.00000000 Properties=species:S:1:pos:R:3:velocities:R:3:Z:I:1
H         2.83859005      13.58873367       4.32987670         0.00000000       0.00000000       0.00000000          1
H         4.17648929      14.88843324      11.86777625         0.00000000       0.00000000       0.00000000          1
H         8.45004350       0.10339676       4.59229844         0.00000000       0.00000000       0.00000000          1
H         0.15798189       0.87027646       8.38180187         0.00000000       0.00000000       0.00000000          1
H         4.46810587       5.81856726      12.56648621         0.00000000       0.00000000       0.00000000          1
H        10.28719938       2.33735562       0.94448586         0.00000000       0.00000000       0.00000000          1
6
pbc=[F, F, F] list_num_par=6 frozen=false iter=59 energy=-0.01265383 Lattice="15.00000000 0.00000000 0.00000000 0.00000000 15.00000000 0.00000000 0.00000000 0.00000000 15.00000000" energy_frozen_part=0.00000000 Properties=species:S:1:pos:R:3:velocities:R:3:Z:I:1
H         2.55828169      10.05026273       6.09638669         0.00000000       0.00000000       0.00000000          1
H         1.12354742       4.98830010       9.04101622         0.00000000       0.00000000       0.00000000          1
H         3.56180682      14.21815650       0.01116282         0.00000000       0.00000000       0.00000000          1
H         5.88045645       5.96358943      10.00476693         0.00000000       0.00000000       0.00000000          1
H        11.82937637       6.58149403       5.70695222         0.00000000       0.00000000       0.00000000          1
H         7.42217917      13.94476440       6.58003540         0.00000000       0.00000000       0.00000000          1
6
pbc=[F, F, F] list_num_par=6 frozen=false iter=69 energy=-0.01757390 Lattice="15.00000000 0.00000000 0.00000000 0.00000000 15.00000000 0.00000000 0.00000000 0.00000000 15.00000000" energy_frozen_part=0.00000000 Properties=species:S:1:pos:R:3:velocities:R:3:Z:I:1
H         5.50638387       4.59329140       8.35517129         0.00000000       0.00000000       0.00000000          1
H         2.57722549       8.07920492      10.73185307         0.00000000       0.00000000       0.00000000          1
H        11.46941927       5.83857428       3.05287527         0.00000000       0.00000000       0.00000000          1
H        11.67286557       4.64364858       5.24931979         0.00000000       0.00000000       0.00000000          1
H         1.76390122       0.70565191      13.45802708         0.00000000       0.00000000       0.00000000          1
H         7.35819190       0.66597908       2.27603288         0.00000000       0.00000000       0.00000000          1
6
pbc=[F, F, F] list_num_par=6 frozen=false iter=79 energy=-0.02270800 Lattice="15.00000000 0.00000000 0.00000000 0.00000000 15.00000000 0.00000000 0.00000000 0.00000000 15.00000000" energy_frozen_part=0.00000000 Properties=species:S:1:pos:R:3:velocities:R:3:Z:I:1
H         5.80907632       2.03084099       3.97426642         0.00000000       0.00000000       0.00000000          1
H        14.51680143       0.07467008      11.82695591         0.00000000       0.00000000       0.00000000          1
H         4.15631374       6.13755302      12.42861202         0.00000000       0.00000000       0.00000000          1
H         1.36219109       4.97859593       2.97768265         0.00000000       0.00000000       0.00000000          1
H         4.10041930       1.51228689      12.67992451         0.00000000       0.00000000       0.00000000          1
H        13.56685711       2.56260603       8.00441196         0.00000000       0.00000000       0.00000000          1
6
pbc=[F, F, F] list_num_par=6 frozen=false iter=89 energy=-0.02949015 Lattice="15.00000000 0.00000000 0.00000000 0.00000000 15.00000000 0.00000000 0.00000000 0.00000000 15.00000000" energy_frozen_part=0.00000000 Properties=species:S:1:pos:R:3:velocities:R:3:Z:I:1
H         1.65455540       4.79445954      13.94814535         0.00000000       0.00000000       0.00000000          1
H         4.43416301      13.14086180       6.22485958         0.00000000       0.00000000       0.00000000          1
H         8.95474439       7.97546100       5.91973392         0.00000000       0.00000000       0.00000000          1
H         0.56950423       1.70802584      10.92652590         0.00000000       0.00000000       0.00000000          1
H        12.74377725       9.93941837      11.05858276         0.00000000       0.00000000       0.00000000          1
H         7.46396174      10.58812451       2.60575174         0.00000000       0.00000000       0.00000000          1
6
pbc=[F, F, F] list_num_par=6 frozen=false iter=99 energy=-0.03433534 Lattice="15.00000000 0.00000000 0.00000000 0.00000000 15.00000000 0.00000000 0.00000000 0.00000000 15.00000000" energy_frozen_part=0.00000000 Properties=species:S:1:pos:R:3:velocities:R:3:Z:I:1
H        14.82890621      11.52525552       4.47387690         0.00000000       0.00000000       0.00000000          1
H         9.97613534      14.74280080      11.38275481         0.00000000       0.00000000       0.00000000          1
H         7.16925002       6.72626195       6.09226600         0.00000000       0.00000000       0.00000000          1
H        13.07990215      10.09541684       9.09929618         0.00000000       0.00000000       0.00000000          1
H        11.13496341       9.31550455       4.52167024         0.00000000       0.00000000       0.00000000          1
H         0.81793499      11.48340691      13.02575439         0.00000000       0.00000000       0.00000000          1
6
pbc=[F, F, F] list_num_par=6 frozen=false iter=109 energy=-0.03782595 Lattice="15.00000000 0.00000000 0.00000000 0.00000000 15.00000000 0.00000000 0.00000000 0.00000000 15.00000000" energy_frozen_part=0.00000000 Properties=species:S:1:pos:R:3:velocities:R:3:Z:I:1
H         8.46824286      14.85196688       3.04543100         0.00000000       0.00000000       0.00000000          1
H         8.58129276      12.30514852       5.88923040         0.00000000       0.00000000       0.00000000          1
H        10.57746333      13.81307150      14.52070348         0.00000000       0.00000000       0.00000000          1
H         9.65723102       9.99342686      10.78195401         0.00000000       0.00000000       0.00000000          1
H         4.05557745      14.68489304      10.77154750         0.00000000       0.00000000       0.00000000          1
H         4.63601421       0.63615090       5.95187255         0.00000000       0.00000000       0.00000000          1
6
pbc=[F, F, F] list_num_par=6 frozen=false iter=119 energy=-0.04286483 Lattice="15.00000000 0.00000000 0.00000000 0.00000000 15.00000000 0.00000000 0.00000000 0.00000000 15.00000000" energy_frozen_part=0.00000000 Properties=species:S:1:pos:R:3:velocities:R:3:Z:I:1
H         2.74820953      11.18555281       1.09740494         0.00000000       0.00000000       0.00000000          1
H         5.21892112       8.68749170       3.20554763         0.00000000       0.00000000       0.00000000          1
H         7.13956735      14.51079295      11.07373323         0.00000000       0.00000000       0.00000000          1
H        13.37099275       1.12316055       5.90763957         0.00000000       0.00000000       0.00000000          1
H         3.42618656      14.35545079      12.57307481         0.00000000       0.00000000       0.00000000          1
H        12.63894327      12.19650252      13.48677654         0.00000000       0.00000000       0.00000000          1
6
pbc=[F, F, F] list_num_par=6 frozen=false iter=129 energy=-0.04988547 Lattice="15.00000000 0.00000000 0.00000000 0.00000000 15.00000000 0.00000000 0.00000000 0.00000000 15.00000000" energy_frozen_part=0.00000000 Properties=species:S:1:pos:R:3:velocities:R:3:Z:I:1
H         2.70285251       7.96649289       3.94863140         0.00000000       0.00000000       0.00000000          1
H        11.14404695       2.78154691      14.48841491         0.00000000       0.00000000       0.00000000          1
H        13.91658553       4.83323531       0.25526577         0.00000000       0.00000000       0.00000000          1
H        10.38007523      12.68794963       6.57780641         0.00000000       0.00000000       0.00000000          1
H        12.11251716       6.21893071      14.10452165         0.00000000       0.00000000       0.00000000          1
H        10.34783801      13.33256782      11.18349179         0.00000000       0.00000000       0.00000000          1
6
pbc=[F, F, F] list_num_par=6 frozen=false iter=139 energy=-0.05789989 Lattice="15.00000000 0.00000000 0.00000000 0.00000000 15.00000000 0.00000000 0.00000000 0.00000000 15.00000000" energy_frozen_part=0.00000000 Properties=species:S:1:pos:R:3:velocities:R:3:Z:I:1
H         3.88635428       2.48771533       1.28846634         0.00000000       0.00000000       0.00000000          1
H         5.45123428      11.05644421      12.08544131         0.00000000       0.00000000       0.00000000          1
H        12.37377912      13.79118033       5.90048604         0.00000000       0.00000000       0.00000000          1
H        11.92687831       3.97373705      10.00852567         0.00000000       0.00000000       0.00000000          1
H        12.95228348       6.43667010       2.65881260         0.00000000       0.00000000       0.00000000          1
H        12.05024634       1.52671937       7.71591723         0.00000000       0.00000000       0.00000000          1
6
pbc=[F, F, F] list_num_par=6 frozen=false iter=149 energy=-0.06354531 Lattice="15.00000000 0.00000000 0.00000000 0.00000000 15.00000000 0.00000000 0.00000000 0.00000000 15.00000000" energy_frozen_part=0.00000000 Properties=species:S:1:pos:R:3:velocities:R:3:Z:I:1
H         2.82937439       6.71933691       9.88526480         0.00000000       0.00000000       0.00000000          1
H        11.65879391       0.53695883      14.31539837         0.00000000       0.00000000       0.00000000          1
H         0.80963230       7.79152325       1.57285124         0.00000000       0.00000000       0.00000000          1
H        10.99806100       5.41621024       3.09106747         0.00000000       0.00000000       0.00000000          1
H         8.61088042       5.57140563       0.71397785         0.00000000       0.00000000       0.00000000          1
H        12.11538507       1.11764044       5.05453167         0.00000000       0.00000000       0.00000000          1
6
pbc=[F, F, F] list_num_par=6 frozen=false iter=159 energy=-0.06869133 Lattice="15.00000000 0.00000000 0.00000000 0.00000000 15.00000000 0.00000000 0.00000000 0.00000000 15.00000000" energy_frozen_part=0.00000000 Properties=species:S:1:pos:R:3:velocities:R:3:Z:I:1
H        13.08561323       5.15482724       1.42742791         0.00000000       0.00000000       0.00000000          1
H         6.63851917       1.87934188       1.46935683         0.00000000       0.00000000       0.00000000          1
H         1.01764534      14.06822660      11.88061492         0.00000000       0.00000000       0.00000000          1
H         7.59455434      13.13978723      11.66302342         0.00000000       0.00000000       0.00000000          1
H        11.09410289      13.00346607       7.64633726         0.00000000       0.00000000       0.00000000          1
H         9.73180921       4.61810723       0.61470907         0.00000000       0.00000000       0.00000000          1
6
pbc=[F, F, F] list_num_par=6 frozen=false iter=169 energy=-0.07415935 Lattice="15.00000000 0.00000000 0.00000000 0.00000000 15.00000000 0.00000000 0.00000000 0.00000000 15.00000000" energy_frozen_part=0.00000000 Properties=species:S:1:pos:R:3:velocities:R:3:Z:I:1
H         1.61585600       4.94948926       5.94183916         0.00000000       0.00000000       0.00000000          1
H         8.75306572      12.03042618       9.05435980         0.00000000       0.00000000       0.00000000          1
H        10.03659016       3.58372007       6.21775588         0.00000000       0.00000000       0.00000000          1
H         5.14489998       9.58475663      13.97430742         0.00000000       0.00000000       0.00000000          1
H        13.41581886       4.60719476       6.18868866         0.00000000       0.00000000       0.00000000          1
H        10.18494125       7.78890224       5.57344136         0.00000000       0.00000000       0.00000000          1
6
pbc=[F, F, F] list_num_par=6 frozen=false iter=179 energy=-0.07871680 Lattice="15.00000000 0.00000000 0.00000000 0.00000000 15.00000000 0.00000000 0.00000000 0.00000000 15.00000000" energy_frozen_part=0.00000000 Properties=species:S:1:pos:R:3:velocities:R:3:Z:I:1
H        14.34940548      13.73676203       7.64251205         0.00000000       0.00000000       0.00000000          1
H         6.22644648       6.23968623      10.64537788         0.00000000       0.00000000       0.00000000          1
H         7.20303490      10.24645891       7.08080835         0.00000000       0.00000000       0.00000000          1
H         5.86650911       9.23033977       3.98795891         0.00000000       0.00000000       0.00000000          1
H         9.82185751       6.76179912       7.50181014         0.00000000       0.00000000       0.00000000          1
H        14.15111876      14.83058068       2.76634294         0.00000000       0.00000000       0.00000000          1
6
pbc=[F, F, F] list_num_par=6 frozen=false iter=189 energy=-0.08446278 Lattice="15.00000000 0.00000000 0.00000000 0.00000000 15.00000000 0.00000000 0.00000000 0.00000000 15.00000000" energy_frozen_part=0.00000000 Properties=species:S:1:pos:R:3:velocities:R:3:Z:I:1
H         3.65491572       5.36028715       3.14316749         0.00000000       0.00000000       0.00000000          1
H         2.26781256       1.18966842      12.82994237         0.00000000       0.00000000       0.00000000          1
H         5.93381696       3.92904803      10.46632080         0.00000000       0.00000000       0.00000000          1
H         6.12598995       2.10842414       7.90739961         0.00000000       0.00000000       0.00000000          1
H        11.19126337      12.76467908       0.16691776         0.00000000       0.00000000       0.00000000          1
H        10.12066795       9.32638753      11.31783689         0.00000000       0.00000000       0.00000000          1
6
pbc=[F, F, F] list_num_par=6 frozen=false iter=199 energy=-0.08933286 Lattice="15.00000000 0.00000000 0.00000000 0.00000000 15.00000000 0.00000000 0.00000000 0.00000000 15.00000000" energy_frozen_part=0.00000000 Properties=species:S:1:pos:R:3:velocities:R:3:Z:I:1
H         8.51146449       9.09707723      11.86298643         0.00000000       0.00000000       0.00000000          1
H         3.34314033       7.62393235       1.90377920         0.00000000       0.00000000       0.00000000          1
H         5.04683540      10.47229741       0.74451401         0.00000000       0.00000000       0.00000000          1
H         9.42488477      11.67953181      14.12405485         0.00000000       0.00000000       0.00000000          1
H        10.82817933       9.68200992       5.72300667         0.00000000       0.00000000       0.00000000          1
H         0.43528999      14.55493082      12.38179196         0.00000000       0.00000000       0.00000000          1
6
pbc=[F, F, F] list_num_par=6 frozen=false iter=209 energy=-0.09280493 Lattice="15.00000000 0.00000000 0.00000000 0.00000000 15.00000000 0.00000000 0.00000000 0.00000000 15.00000000" energy_frozen_part=0.00000000 Properties=species:S:1:pos:R:3:velocities:R:3:Z:I:1
H         7.55714926      14.23503119      11.56312362         0.00000000       0.00000000       0.00000000          1
H         1.27858432       4.24941856      14.57103707         0.00000000       0.00000000       0.00000000          1
H         2.49257053       2.56860008       3.54020177         0.00000000       0.00000000       0.00000000          1
H         7.88058213      13.45446358       5.12734337         0.00000000       0.00000000       0.00000000          1
H         4.58215857       1.88334350      10.62378610         0.00000000       0.00000000       0.00000000          1
H         4.92868120      13.17940225      12.58487595         0.00000000       0.00000000       0.00000000          1
6
pbc=[F, F, F] list_num_par=6 frozen=false iter=219 energy=-0.09500193 Lattice="15.00000000 0.00000000 0.00000000 0.00000000 15.00000000 0.00000000 0.00000000 0.00000000 15.00000000" energy_frozen_part=0.00000000 Properties=species:S:1:pos:R:3:velocities:R:3:Z:I:1
H         7.53476410      14.88402882       3.01746804         0.00000000       0.00000000       0.00000000          1
H        13.14905736       0.67651821       5.23628259         0.00000000       0.00000000       0.00000000          1
H         7.38538711      13.45868781       8.06556128         0.00000000       0.00000000       0.00000000          1
H        13.64148489       5.45743044      10.60293685         0.00000000       0.00000000       0.00000000          1
H        12.11636499       5.33732983      12.80293475         0.00000000       0.00000000       0.00000000          1
H         3.97236387       1.73295893      10.17529381         0.00000000       0.00000000       0.00000000          1
6
pbc=[F, F, F] list_num_par=6 frozen=false iter=229 energy=-0.10008713 Lattice="15.00000000 0.00000000 0.00000000 0.00000000 15.00000000 0.00000000 0.00000000 0.00000000 15.00000000" energy_frozen_part=0.00000000 Properties=species:S:1:pos:R:3:velocities:R:3:Z:I:1
H        13.86182523       3.27487111       6.25474108         0.00000000       0.00000000       0.00000000          1
H        12.09786778       1.04966798       3.08482929         0.00000000       0.00000000       0.00000000          1
H         0.57833094       9.82575337      12.31565660         0.00000000       0.00000000       0.00000000          1
H         6.37380706       9.17180020       8.24072281         0.00000000       0.00000000       0.00000000          1
H         3.06830006      12.45871613       9.06139800         0.00000000       0.00000000       0.00000000          1
H        11.77668041       5.08000739       4.21911137         0.00000000       0.00000000       0.00000000          1
6
pbc=[F, F, F] list_num_par=6 frozen=false iter=239 energy=-0.10243653 Lattice="15.00000000 0.00000000 0.00000000 0.00000000 15.00000000 0.00000000 0.00000000 0.00000000 15.00000000" energy_frozen_part=0.00000000 Properties=species:S:1:pos:R:3:velocities:R:3:Z:I:1
H        13.48149980       0.29570117       2.92686354         0.00000000       0.00000000       0.00000000          1
H         9.90036988      12.33229594       9.82441152         0.00000000       0.00000000       0.00000000          1
H        14.42731315      10.76403832       5.63271568         0.00000000       0.00000000       0.00000000          1
H         6.61246512      11.81846776      11.65309623         0.00000000       0.00000000       0.00000000          1
H         4.08970664      10.63872105       2.32386771         0.00000000       0.00000000       0.00000000          1
H         6.46985865       9.21584409       0.74821438         0.00000000       0.00000000       0.00000000          1
6
pbc=[F, F, F] list_num_par=6 frozen=false iter=249 energy=-0.10615818 Lattice="15.00000000 0.00000000 0.00000000 0.00000000 15.00000000 0.00000000 0.00000000 0.00000000 15.00000000" energy_frozen_part=0.00000000 Properties=species:S:1:pos:R:3:velocities:R:3:Z:I:1
H         0.41317684      12.92923578       7.01738901         0.00000000       0.00000000       0.00000000          1
H        12.60107042       6.97333185       9.99728645         0.00000000       0.00000000       0.00000000          1
H         5.22697279       9.11063001       6.08164443         0.00000000       0.00000000       0.00000000          1
H         7.28455406       6.70643160       3.06036469         0.00000000       0.00000000       0.00000000          1
H         3.10025097       7.59204794       2.33282398         0.00000000       0.00000000       0.00000000          1
H         9.86132899       4.71340451       2.94359543         0.00000000       0.00000000       0.00000000          1
6
pbc=[F, F, F] list_num_par=6 frozen=false iter=259 energy=-0.10882518 Lattice="15.00000000 0.00000000 0.00000000 0.00000000 15.00000000 0.00000000 0.00000000 0.00000000 15.00000000" energy_frozen_part=0.00000000 Properties=species:S:1:pos:R:3:velocities:R:3:Z:I:1
H         1.64038866       7.45195369       9.57557817         0.00000000       0.00000000       0.00000000          1
H         5.29356538      10.73655899       5.89422427         0.00000000       0.00000000       0.00000000          1
H         7.27687159      11.46413528       3.07717501         0.00000000       0.00000000       0.00000000          1
H        14.20203003      14.81082114       3.32975378         0.00000000       0.00000000       0.00000000          1
H         0.14704869       3.89974864       4.99282806         0.00000000       0.00000000       0.00000000          1
H         5.27037659       7.30830013       6.41086407         0.00000000       0.00000000       0.00000000          1
6
pbc=[F, F, F] list_num_par=6 frozen=false iter=269 energy=-0.11216552 Lattice="15.00000000 0.00000000 0.00000000 0.00000000 15.00000000 0.00000000 0.00000000 0.00000000 15.00000000" energy_frozen_part=0.00000000 Properties=species:S:1:pos:R:3:velocities:R:3:Z:I:1
H         0.95748346      10.78218100       2.57091331         0.00000000       0.00000000       0.00000000          1
H         1.32701425      13.89853720       7.42260442         0.00000000       0.00000000       0.00000000          1
H         0.28254801      11.24569294       9.17977786         0.00000000       0.00000000       0.00000000          1
H         3.80584080       2.06371616      11.67775120         0.00000000       0.00000000       0.00000000          1
H         3.08608987      10.28380974      11.29970959         0.00000000       0.00000000       0.00000000          1
H         0.14267020       5.15138654      11.91936889         0.00000000       0.00000000       0.00000000          1
6
pbc=[F, F, F] list_num_par=6 frozen=false iter=279 energy=-0.11643512 Lattice="15.00000000 0.00000000 0.00000000 0.00000000 15.00000000 0.00000000 0.00000000 0.00000000 15.00000000" energy_frozen_part=0.00000000 Properties=species:S:1:pos:R:3:velocities:R:3:Z:I:1
H         5.93364413       9.24088038       0.08657527         0.00000000       0.00000000       0.00000000          1
H         8.02426069       1.41817712       9.63772043         0.00000000       0.00000000       0.00000000          1
H         7.92198222       2.55950572       7.09701293         0.00000000       0.00000000       0.00000000          1
H         4.73256098       1.60168433      12.46750986         0.00000000       0.00000000       0.00000000          1
H        14.36225101       3.92763754      10.40428653         0.00000000       0.00000000       0.00000000          1
H         9.29914427      11.75391678      12.79513401         0.00000000       0.00000000       0.00000000          1
6
pbc=[F, F, F] list_num_par=6 frozen=false iter=289 energy=-0.12013404 Lattice="15.00000000 0.00000000 0.00000000 0.00000000 15.00000000 0.00000000 0.00000000 0.00000000 15.00000000" energy_frozen_part=0.00000000 Properties=species:S:1:pos:R:3:velocities:R:3:Z:I:1
H         3.28111195       8.82801071      11.34353086         0.00000000       0.00000000       0.00000000          1
H         2.11286168       8.74602432       7.58594663         0.00000000       0.00000000       0.00000000          1
H         1.59692285      14.71102242       3.38105810         0.00000000       0.00000000       0.00000000          1
H        13.69699086      14.35455244       2.27846755         0.00000000       0.00000000       0.00000000          1
H         1.11399101       5.17241532       7.54602176         0.00000000       0.00000000       0.00000000          1
H         1.25483059      11.60019899       2.17554279         0.00000000       0.00000000       0.00000000          1
6
pbc=[F, F, F] list_num_par=6 frozen=false iter=299 energy=-0.12300771 Lattice="15.00000000 0.00000000 0.00000000 0.00000000 15.00000000 0.00000000 0.00000000 0.00000000 15.00000000" energy_frozen_part=0.00000000 Properties=species:S:1:pos:R:3:velocities:R:3:Z:I:1
H         7.72015557       3.08613788       9.05160854         0.00000000       0.00000000       0.00000000          1
H         9.07641642       2.99550998      12.68452716         0.00000000       0.00000000       0.00000000          1
H         7.72355338       0.52894017       7.50587815         0.00000000       0.00000000       0.00000000          1
H         2.58017390       5.06090514       6.06876106         0.00000000       0.00000000       0.00000000          1
H         3.05531409       1.38637962       0.72344136         0.00000000       0.00000000       0.00000000          1
H        13.51542358       0.82085219       2.69354537         0.00000000       0.00000000       0.00000000          1
6
pbc=[F, F, F] list_num_par=6 frozen=false iter=309 energy=-0.12539948 Lattice="15.00000000 0.00000000 0.00000000 0.00000000 15.00000000 0.00000000 0.00000000 0.00000000 15.00000000" energy_frozen_part=0.00000000 Properties=species:S:1:pos:R:3:velocities:R:3:Z:I:1
H        10.64024458       7.12980940      13.66256632         0.00000000       0.00000000       0.00000000          1
H        12.79911234       0.05197019       5.11714793         0.00000000       0.00000000       0.00000000          1