6
pbc=[F, F, F] list_num_par=6 energy=41.51539364 iter=9 frozen=false Lattice="15.00000000 0.00000000 0.00000000 0.00000000 15.00000000 0.00000000 0.00000000 0.00000000 15.00000000" energy_frozen_part=0.00000000 Properties=species:S:1:pos:R:3:velocities:R:3:Z:I:1
H         5.95814030       2.84533927       2.96644932         0.00000000       0.00000000       0.00000000          1
H        13.80169373       1.22459325       3.39294658         0.00000000       0.00000000       0.00000000          1
H         4.64116529      10.87847193       4.20545750         0.00000000       0.00000000       0.00000000          1
H        12.78942310      11.97936323       5.17636483         0.00000000       0.00000000       0.00000000          1
H         4.09454070      10.91886404       2.61330133         0.00000000       0.00000000       0.00000000          1
H         8.23399735       4.67339069       1.99069702         0.00000000       0.00000000       0.00000000          1
6
pbc=[F, F, F] list_num_par=6 energy=4.27286275 iter=19 frozen=false Lattice="15.00000000 0.00000000 0.00000000 0.00000000 15.00000000 0.00000000 0.00000000 0.00000000 15.00000000" energy_frozen_part=0.00000000 Properties=species:S:1:pos:R:3:velocities:R:3:Z:I:1
H         2.73407230       8.68781120       5.73075890         0.00000000       0.00000000       0.00000000          1
H         4.11764920       9.59594327       4.60713989         0.00000000       0.00000000       0.00000000          1
H        11.34490953       9.96350210       6.88778093         0.00000000       0.00000000       0.00000000          1
H        10.06032849       1.95192119       2.25188646         0.00000000       0.00000000       0.00000000          1
H        12.09325737       9.33822563      12.77453515         0.00000000       0.00000000       0.00000000          1
H         0.42453481       5.15559781       3.04525491         0.00000000       0.00000000       0.00000000          1
6
pbc=[F, F, F] list_num_par=6 energy=0.01519234 iter=29 frozen=false Lattice="15.00000000 0.00000000 0.00000000 0.00000000 15.00000000 0.00000000 0.00000000 0.00000000 15.00000000" energy_frozen_part=0.00000000 Properties=species:S:1:pos:R:3:velocities:R:3:Z:I:1
H         6.29528101      12.38875633      11.28531644         0.00000000       0.00000000       0.00000000          1
H         1.03439142      14.77236876       1.49670172         0.00000000       0.00000000       0.00000000          1
H        13.94700626       3.88651516      11.84023486         0.00000000       0.00000000       0.00000000          1
H         5.06672812      12.08138781      13.41533999         0.00000000       0.00000000       0.00000000          1
H         1.08154578      14.97090686      12.20463868         0.00000000       0.00000000       0.00000000          1
H         0.49414377       3.94579644       3.26376636         0.00000000       0.00000000       0.00000000          1
6
pbc=[F, F, F] list_num_par=6 energy=-0.00218228 iter=39 frozen=false Lattice="15.00000000 0.00000000 0.00000000 0.00000000 15.00000000 0.00000000 0.00000000 0.00000000 15.00000000" energy_frozen_part=0.00000000 Properties=species:S:1:pos:R:3:velocities:R:3:Z:I:1
H         8.50724349      11.52877852      10.67824004         0.00000000       0.00000000       0.00000000          1
H         2.54430841       0.06915775      13.93599118         0.00000000       0.00000000       0.00000000          1
H         2.50356983      12.07622348      12.34418211         0.00000000       0.00000000       0.00000000          1
H        14.70926300       7.41455078       5.69342708         0.00000000       0.00000000       0.00000000          1
H         5.80343795      14.36406818       2.77513110         0.00000000       0.00000000       0.00000000          1
H        13.20706876       0.84885888       8.97151773         0.00000000       0.00000000       0.00000000          1
6
pbc=[F, F, F] list_num_par=6 energy=-0.00398561 iter=49 frozen=false Lattice="15.00000000 0.00000000 0.00000000 0.00000000 15.00000000 0.00000000 0.00000000 0.00000000 15.00000000" energy_frozen_part=0.00000000 Properties=species:S:1:pos:R:3:velocities:R:3:Z:I:1
H        12.75357924      11.52692151      10.05132530         0.00000000       0.00000000       0.00000000          1
H        12.38543320       4.32419479       2.25987906         0.00000000       0.00000000       0.00000000          1
H         1.25491164      12.19305976       9.26749810         0.00000000       0.00000000       0.00000000          1
H         5.94332730       3.80743435      13.61854680         0.00000000       0.00000000       0.00000000          1
H         6.52998523       4.40927935       8.26937275         0.00000000       0.00000000       0.00000000          1
H         8.61542324      14.49196419       1.29214976         0.00000000       0.00000000       0.00000000          1
6
pbc=[F, F, F] list_num_par=6 energy=-0.00561871 iter=59 frozen=false Lattice="15.00000000 0.00000000 0.00000000 0.00000000 15.00000000 0.00000000 0.00000000 0.00000000 15.00000000" energy_frozen_part=0.00000000 Properties=species:S:1:pos:R:3:velocities:R:3:Z:I:1
H        10.82045514       2.02810288       0.93153326         0.00000000       0.00000000       0.00000000          1
H        14.77209972      12.65954678       6.81939696         0.00000000       0.00000000       0.00000000          1
H         2.03364590       0.28461697       1.14066651         0.00000000       0.00000000       0.00000000          1
H         9.37687700      13.49096366       2.84776994         0.00000000       0.00000000       0.00000000          1
H         5.32220904       6.32238720       9.51900963         0.00000000       0.00000000       0.00000000          1
H         1.06130855       4.56023207       4.27130671         0.00000000       0.00000000       0.00000000          1
6
pbc=[F, F, F] list_num_par=6 energy=-0.00730377 iter=69 frozen=false Lattice="15.00000000 0.00000000 0.00000000 0.00000000 15.00000000 0.00000000 0.00000000 0.00000000 15.00000000" energy_frozen_part=0.00000000 Properties=species:S:1:pos:R:3:velocities:R:3:Z:I:1
H         5.06992490       1.43677300       7.47976941         0.00000000       0.00000000       0.00000000          1
H         0.50801143      12.09399262       1.60040226         0.00000000       0.00000000       0.00000000          1
H        11.42564120      12.13366918      12.03908316         0.00000000       0.00000000       0.00000000          1
H        10.98861292       5.79792224       2.27943707         0.00000000       0.00000000       0.00000000          1
H         9.54107811      14.80392047       8.36175649         0.00000000       0.00000000       0.00000000          1
H         5.68731296       3.56746817      14.43202396         0.00000000       0.00000000       0.00000000          1
6
pbc=[F, F, F] list_num_par=6 energy=-0.01094005 iter=79 frozen=false Lattice="15.00000000 0.00000000 0.00000000 0.00000000 15.00000000 0.00000000 0.00000000 0.00000000 15.00000000" energy_frozen_part=0.00000000 Properties=species:S:1:pos:R:3:velocities:R:3:Z:I:1
H         9.17290183       7.53419776       4.34312607         0.00000000       0.00000000       0.00000000          1
H        11.84378441       1.63008740       5.10036475         0.00000000       0.00000000       0.00000000          1
H         1.43652312      14.37246823      14.22753509         0.00000000       0.00000000       0.00000000          1
H         7.48364634       2.71496261      11.89244876         0.00000000       0.00000000       0.00000000          1
H         7.79291303      10.11093472       0.43997909         0.00000000       0.00000000       0.00000000          1
H        10.95758003       6.58796758      14.47263127         0.00000000       0.00000000       0.00000000          1
6
pbc=[F, F, F] list_num_par=6 energy=-0.01427974 iter=89 frozen=false Lattice="15.00000000 0.00000000 0.00000000 0.00000000 15.00000000 0.00000000 0.00000000 0.00000000 15.00000000" energy_frozen_part=0.00000000 Properties=species:S:1:pos:R:3:velocities:R:3:Z:I:1
H         5.34109014       8.57846352      10.49398830         0.00000000       0.00000000       0.00000000          1
H         8.23340268       0.70591447       4.58624412         0.00000000       0.00000000       0.00000000          1
H         5.71187490      14.76745355       6.58633128         0.00000000       0.00000000       0.00000000          1
H        13.99697023       5.05035879       3.45655830         0.00000000       0.00000000       0.00000000          1
H         2.89054981      14.09624379       2.97439030         0.00000000       0.00000000       0.00000000          1
H         9.74361182      12.20115347       3.47017728         0.00000000       0.00000000       0.00000000          1
6
pbc=[F, F, F] list_num_par=6 energy=-0.01514579 iter=99 frozen=false Lattice="15.00000000 0.00000000 0.00000000 0.00000000 15.00000000 0.00000000 0.00000000 0.00000000 15.00000000" energy_frozen_part=0.00000000 Properties=species:S:1:pos:R:3:velocities:R:3:Z:I:1
H         7.41869035       4.61067966       6.28157836         0.00000000       0.00000000       0.00000000          1
H         7.29160253       9.96522025       6.77249932         0.00000000       0.00000000       0.00000000          1
H         9.90962187      14.02463843       5.11541053         0.00000000       0.00000000       0.00000000          1
H        12.62420602       6.12461184       4.11500143         0.00000000       0.00000000       0.00000000          1
H         2.17517313      10.79028476       9.89859878         0.00000000       0.00000000       0.00000000          1
H         2.47426960       7.74468810       1.04711133         0.00000000       0.00000000       0.00000000          1
6
pbc=[F, F, F] list_num_par=6 energy=-0.02105669 iter=109 frozen=false Lattice="15.00000000 0.00000000 0.00000000 0.00000000 15.00000000 0.00000000 0.00000000 0.00000000 15.00000000" energy_frozen_part=0.00000000 Properties=species:S:1:pos:R:3:velocities:R:3:Z:I:1
H        14.94170229      13.99734435       1.47616749         0.00000000       0.00000000       0.00000000          1
H        13.03830575       3.81176135      14.00830797         0.00000000       0.00000000       0.00000000          1
H         3.69828918       4.03770869       8.58698783         0.00000000       0.00000000       0.00000000          1
H        13.26192537       1.29439664       9.09808699         0.00000000       0.00000000       0.00000000          1
H         3.11098078      12.88035304       5.18431021         0.00000000       0.00000000       0.00000000          1
H         6.74783151      11.98679996       7.02251852         0.00000000       0.00000000       0.00000000          1
6
pbc=[F, F, F] list_num_par=6 energy=-0.02233515 iter=119 frozen=false Lattice="15.00000000 0.00000000 0.00000000 0.00000000 15.00000000 0.00000000 0.00000000 0.00000000 15.00000000" energy_frozen_part=0.00000000 Properties=species:S:1:pos:R:3:velocities:R:3:Z:I:1
H         6.46102923       4.55896194      13.69057005         0.00000000       0.00000000       0.00000000          1
H         2.18585782      13.58183015      14.14309928         0.00000000       0.00000000       0.00000000          1
H         6.00201416      10.32249126      12.86392963         0.00000000       0.00000000       0.00000000          1
H         4.19891307       7.16599347       9.05975155         0.00000000       0.00000000       0.00000000          1
H        10.34664380       8.90150434       2.68181460         0.00000000       0.00000000       0.00000000          1
H        10.83377937       9.25661585      13.25475308         0.00000000       0.00000000       0.00000000          1
6
pbc=[F, F, F] list_num_par=6 energy=-0.02750263 iter=129 frozen=false Lattice="15.00000000 0.00000000 0.00000000 0.00000000 15.00000000 0.00000000 0.00000000 0.00000000 15.00000000" energy_frozen_part=0.00000000 Properties=species:S:1:pos:R:3:velocities:R:3:Z:I:1
H         4.77251669       5.59589971       3.40988729         0.00000000       0.00000000       0.00000000          1
H         6.99343070       8.12297630       5.91994145         0.00000000       0.00000000       0.00000000          1
H         8.30715997       1.57888871       5.85422806         0.00000000       0.00000000       0.00000000          1
H         0.76055378       0.29318590       5.25032625         0.00000000       0.00000000       0.00000000          1
H         5.02289440       9.95657430       0.42076527         0.00000000       0.00000000       0.00000000          1
H        13.04045149      13.77543527       9.85910343         0.00000000       0.00000000       0.00000000          1
6
pbc=[F, F, F] list_num_par=6 energy=-0.03070566 iter=139 frozen=false Lattice="15.00000000 0.00000000 0.00000000 0.00000000 15.00000000 0.00000000 0.00000000 0.00000000 15.00000000" energy_frozen_part=0.00000000 Properties=species:S:1:pos:R:3:velocities:R:3:Z:I:1
H         0.52929834       1.78285583      14.20491577         0.00000000       0.00000000       0.00000000          1
H         3.50198697       8.96097372       0.92618882         0.00000000       0.00000000       0.00000000          1
H         9.84629762      11.47966696       9.06125529         0.00000000       0.00000000       0.00000000          1
H         8.69604004      12.66438911       3.44417460         0.00000000       0.00000000       0.00000000          1
H        11.07173461       7.49089719       4.62301876         0.00000000       0.00000000       0.00000000          1
H        10.06519842       3.64124553       4.69285077         0.00000000       0.00000000       0.00000000          1
6
pbc=[F, F, F] list_num_par=6 energy=-0.03470498 iter=149 frozen=false Lattice="15.00000000 0.00000000 0.00000000 0.00000000 15.00000000 0.00000000 0.00000000 0.00000000 15.00000000" energy_frozen_part=0.00000000 Properties=species:S:1:pos:R:3:velocities:R:3:Z:I:1
H         9.10991621       9.73865882      14.54865754         0.00000000       0.00000000       0.00000000          1
H         7.34644010       9.47877524      12.73847148         0.00000000       0.00000000       0.00000000          1
H        12.53678736       9.30021238       5.80350552         0.00000000       0.00000000       0.00000000          1
H         5.55262600       8.28336154       4.99260127         0.00000000       0.00000000       0.00000000          1
H         0.04917766      13.26173515      12.26796433         0.00000000       0.00000000       0.00000000          1
H         2.10767544       1.11484659       0.92789967         0.00000000       0.00000000       0.00000000          1
6
pbc=[F, F, F] list_num_par=6 energy=-0.04164211 iter=159 frozen=false Lattice="15.00000000 0.00000000 0.00000000 0.00000000 15.00000000 0.00000000 0.00000000 0.00000000 15.00000000" energy_frozen_part=0.00000000 Properties=species:S:1:pos:R:3:velocities:R:3:Z:I:1
H         6.73708539       8.14580985       0.98639812         0.00000000       0.00000000       0.00000000          1
H         6.67512143      11.96908553      14.34309358         0.00000000       0.00000000       0.00000000          1
H         7.75809987      14.74196141       3.35336014         0.00000000       0.00000000       0.00000000          1
H        10.41763000       9.88714152       0.63027610         0.00000000       0.00000000       0.00000000          1
H        10.01930395       8.76940617      12.31392870         0.00000000       0.00000000       0.00000000          1
H         2.60784314       6.76289978       1.10949081         0.00000000       0.00000000       0.00000000          1
6
pbc=[F, F, F] list_num_par=6 energy=-0.04770106 iter=169 frozen=false Lattice="15.00000000 0.00000000 0.00000000 0.00000000 15.00000000 0.00000000 0.00000000 0.00000000 15.00000000" energy_frozen_part=0.00000000 Properties=species:S:1:pos:R:3:velocities:R:3:Z:I:1
H         4.95787121       5.58943986       2.10272520         0.00000000       0.00000000       0.00000000          1
H         5.86703897      11.75913692       0.25970016         0.00000000       0.00000000       0.00000000          1
H        11.64870207       4.18688050       8.23058625         0.00000000       0.00000000       0.00000000          1
H         4.54153861       2.95948047       4.97100775         0.00000000       0.00000000       0.00000000          1
H         9.17702855      14.06943773       0.55398927         0.00000000       0.00000000       0.00000000          1
H        14.15344627      13.81690244      10.13414448         0.00000000       0.00000000       0.00000000          1
6
pbc=[F, F, F] list_num_par=6 energy=-0.05648599 iter=179 frozen=false Lattice="15.00000000 0.00000000 0.00000000 0.00000000 15.00000000 0.00000000 0.00000000 0.00000000 15.00000000" energy_frozen_part=0.00000000 Properties=species:S:1:pos:R:3:velocities:R:3:Z:I:1
H         2.11454026       3.55244794      13.78716161         0.00000000       0.00000000       0.00000000          1
H         4.45414484      11.93055181       1.04071447         0.00000000       0.00000000       0.00000000          1
H         3.27869799      11.95211765       7.95141159         0.00000000       0.00000000       0.00000000          1
H         7.80694197      11.54175327       0.61690612         0.00000000       0.00000000       0.00000000          1
H         5.82462900       5.69898275       3.88054936         0.00000000       0.00000000       0.00000000          1
H        10.37985929       0.94385065       5.81424638         0.00000000       0.00000000       0.00000000          1
6
pbc=[F, F, F] list_num_par=6 energy=-0.06038305 iter=189 frozen=false Lattice="15.00000000 0.00000000 0.00000000 0.00000000 15.00000000 0.00000000 0.00000000 0.00000000 15.00000000" energy_frozen_part=0.00000000 Properties=species:S:1:pos:R:3:velocities:R:3:Z:I:1
H         7.86620554       8.86439508      13.00283388         0.00000000       0.00000000       0.00000000          1
H         4.47617528       8.32833865      11.75584160         0.00000000       0.00000000       0.00000000          1
H        12.86825038      13.56771974       7.71975099         0.00000000       0.00000000       0.00000000          1
H         2.05707688       4.49566393       5.27688191         0.00000000       0.00000000       0.00000000          1
H         2.25106795      13.26793726       9.93895748         0.00000000       0.00000000       0.00000000          1
H         4.53447989       5.95624227       2.38718455         0.00000000       0.00000000       0.00000000          1
6
pbc=[F, F, F] list_num_par=6 energy=-0.06320041 iter=199 frozen=false Lattice="15.00000000 0.00000000 0.00000000 0.00000000 15.00000000 0.00000000 0.00000000 0.00000000 15.00000000" energy_frozen_part=0.00000000 Properties=species:S:1:pos:R:3:velocities:R:3:Z:I:1
H         5.70362726      12.03853612       6.19415049         0.00000000       0.00000000       0.00000000          1
H        10.47789721       8.54253583       4.03006798         0.00000000       0.00000000       0.00000000          1
H         8.56845940       4.94206522      11.93413079         0.00000000       0.00000000       0.00000000          1
H         3.87900318       1.25750703       0.78332301         0.00000000       0.00000000       0.00000000          1
H         3.19981488      11.54387677       4.08344531         0.00000000       0.00000000       0.00000000          1
H         3.93164003       0.31104364      11.23786325         0.00000000       0.00000000       0.00000000          1
6
pbc=[F, F, F] list_num_par=6 energy=-0.06891967 iter=209 frozen=false Lattice="15.00000000 0.00000000 0.00000000 0.00000000 15.00000000 0.00000000 0.00000000 0.00000000 15.00000000" energy_frozen_part=0.00000000 Properties=species:S:1:pos:R:3:velocities:R:3:Z:I:1
H         1.14372782       0.87071382      14.68546348         0.00000000       0.00000000       0.00000000          1
H         3.63684906      12.72157381      10.84508213         0.00000000       0.00000000       0.00000000          1
H         2.87305632       8.56813157       6.16802158         0.00000000       0.00000000       0.00000000          1
H         0.09982119       9.83921310      12.36000704         0.00000000       0.00000000       0.00000000          1
H         2.77201705      12.77241990      14.38709779         0.00000000       0.00000000       0.00000000          1
H         1.19589150       4.97947242       9.07395263         0.00000000       0.00000000       0.00000000          1
6
pbc=[F, F, F] list_num_par=6 energy=-0.07295400 iter=219 frozen=false Lattice="15.00000000 0.00000000 0.00000000 0.00000000 15.00000000 0.00000000 0.00000000 0.00000000 15.00000000" energy_frozen_part=0.00000000 Properties=species:S:1:pos:R:3:velocities:R:3:Z:I:1
H         1.51712606       6.02597001       3.57394999         0.00000000       0.00000000       0.00000000          1
H         3.28162390       6.50641032      10.25110964         0.00000000       0.00000000       0.00000000          1
H         8.12547320      11.26217896      10.59014447         0.00000000       0.00000000       0.00000000          1
H         4.19450253       4.71466734       8.63864805         0.00000000       0.00000000       0.00000000          1
H        10.20343963      11.16888311      14.46193661         0.00000000       0.00000000       0.00000000          1
H        13.69587621       6.67185369       3.28765499         0.00000000       0.00000000       0.00000000          1
6
pbc=[F, F, F] list_num_par=6 energy=-0.08003426 iter=229 frozen=false Lattice="15.00000000 0.00000000 0.00000000 0.00000000 15.00000000 0.00000000 0.00000000 0.00000000 15.00000000" energy_frozen_part=0.00000000 Properties=species:S:1:pos:R:3:velocities:R:3:Z:I:1
H        12.89890992       7.45746204       4.69895658         0.00000000       0.00000000       0.00000000          1
H         6.66089093       6.36919508       6.41052621         0.00000000       0.00000000       0.00000000          1
H         6.27031514      13.10813117       5.17684503         0.00000000       0.00000000       0.00000000          1
H         7.50595694       4.44567060       8.76519032         0.00000000       0.00000000       0.00000000          1
H         7.55953561       2.44177229       0.29181001         0.00000000       0.00000000       0.00000000          1
H        13.77163140       1.35740828       5.71548531         0.00000000       0.00000000       0.00000000          1
6
pbc=[F, F, F] list_num_par=6 energy=-0.08790498 iter=239 frozen=false Lattice="15.00000000 0.00000000 0.00000000 0.00000000 15.00000000 0.00000000 0.00000000 0.00000000 15.00000000" energy_frozen_part=0.00000000 Properties=species:S:1:pos:R:3:velocities:R:3:Z:I:1
H        11.27568607       2.02689522       8.83470347         0.00000000       0.00000000       0.00000000          1
H         8.84468626       5.64877136       4.57848609         0.00000000       0.00000000       0.00000000          1
H         5.58216675       5.73113074      10.54777389         0.00000000       0.00000000       0.00000000          1
H         0.40147119       2.52011993       0.00063605         0.00000000       0.00000000       0.00000000          1
H         2.53500051       7.89654252      14.91763349         0.00000000       0.00000000       0.00000000          1
H        11.47596409       3.83176898       4.75183135         0.00000000       0.00000000       0.00000000          1
6
pbc=[F, F, F] list_num_par=6 energy=-0.09692199 iter=249 frozen=false Lattice="15.00000000 0.00000000 0.00000000 0.00000000 15.00000000 0.00000000 0.00000000 0.00000000 15.00000000" energy_frozen_part=0.00000000 Properties=species:S:1:pos:R:3:velocities:R:3:Z:I:1
H         0.97257063       3.22054533       0.14204789         0.00000000       0.00000000       0.00000000          1
H        13.70862974       2.70790056      12.11382179         0.00000000       0.00000000       0.00000000          1
H        11.31197405       9.92601091       2.57550668         0.00000000       0.00000000       0.00000000          1
H         8.83878009       7.77617864       8.28715505         0.00000000       0.00000000       0.00000000          1
H         2.93759353      14.69784736       4.63305936         0.00000000       0.00000000       0.00000000          1
H        10.00413239       8.28920308       0.84877172         0.00000000       0.00000000       0.00000000          1
6
pbc=[F, F, F] list_num_par=6 energy=-0.09900095 iter=259 frozen=false Lattice="15.00000000 0.00000000 0.00000000 0.00000000 15.00000000 0.00000000 0.00000000 0.00000000 15.00000000" energy_frozen_part=0.00000000 Properties=species:S:1:pos:R:3:velocities:R:3:Z:I:1
H         7.96007113       3.96329501      14.48171518         0.00000000       0.00000000       0.00000000          1
H        11.64189067      10.07751099      11.89610207         0.00000000       0.00000000       0.00000000          1
H         8.95716441      10.16660627      12.39275821         0.00000000       0.00000000       0.00000000          1
H        11.64961896       0.83071000       0.06438453         0.00000000       0.00000000       0.00000000          1
H         4.69420905      14.21629601       5.28007350         0.00000000       0.00000000       0.00000000          1
H         6.19781084       3.84091292       3.58076253         0.00000000       0.00000000       0.00000000          1
6
pbc=[F, F, F] list_num_par=6 energy=-0.10076497 iter=269 frozen=false Lattice="15.00000000 0.00000000 0.00000000 0.00000000 15.00000000 0.00000000 0.00000000 0.00000000 15.00000000" energy_frozen_part=0.00000000 Properties=species:S:1:pos:R:3:velocities:R:3:Z:I:1
H         0.63135217       3.23871895       0.22838887         0.00000000       0.00000000       0.00000000          1
H        12.79916622       1.86874950       0.43641642         0.00000000       0.00000000       0.00000000          1
H        13.69975847      11.57693184       0.48541614         0.00000000       0.00000000       0.00000000          1
H         8.11519821      14.84573691       2.26709828         0.00000000       0.00000000       0.00000000          1
H         0.62951365      13.74117341       8.21529268         0.00000000       0.00000000       0.00000000          1
H         2.30956449       1.01884916       0.71147561         0.00000000       0.00000000       0.00000000          1
6
pbc=[F, F, F] list_num_par=6 energy=-0.10307693 iter=279 frozen=false Lattice="15.00000000 0.00000000 0.00000000 0.00000000 15.00000000 0.00000000 0.00000000 0.00000000 15.00000000" energy_frozen_part=0.00000000 Properties=species:S:1:pos:R:3:velocities:R:3:Z:I:1
H         0.15984791       0.75454362       0.96968006         0.00000000       0.00000000       0.00000000          1
H        10.88187116       0.24369407       5.45183330         0.00000000       0.00000000       0.00000000          1
H        10.34108567      11.80719398       3.39774722         0.00000000       0.00000000       0.00000000          1
H        11.66589165      14.34156102       3.31415074         0.00000000       0.00000000       0.00000000          1
H         3.49079568       9.18624835       7.89365100         0.00000000       0.00000000       0.00000000          1
H         5.50596936       1.82037517       3.12993876         0.00000000       0.00000000       0.00000000          1
6
pbc=[F, F, F] list_num_par=6 energy=-0.10577321 iter=289 frozen=false Lattice="15.00000000 0.00000000 0.00000000 0.00000000 15.00000000 0.00000000 0.00000000 0.00000000 15.00000000" energy_frozen_part=0.00000000 Properties=species:S:1:pos:R:3:velocities:R:3:Z:I:1
H         1.56652258       2.09385681      11.24177035         0.00000000       0.00000000       0.00000000          1
H         7.67785897      14.82763274       9.42810620         0.00000000       0.00000000       0.00000000          1
H         5.07161683       1.41638182       8.39109938         0.00000000       0.00000000       0.00000000          1
H         8.26246207       6.03747863       7.30542595         0.00000000       0.00000000       0.00000000          1
H         5.09681468      13.86118749       7.64319235         0.00000000       0.00000000       0.00000000          1
H         5.81283260      10.87778348      10.51009586         0.00000000       0.00000000       0.00000000          1
6
pbc=[F, F, F] list_num_par=6 energy=-0.10838405 iter=299 frozen=false Lattice="15.00000000 0.00000000 0.00000000 0.00000000 15.00000000 0.00000000 0.00000000 0.00000000 15.00000000" energy_frozen_part=0.00000000 Properties=species:S:1:pos:R:3:velocities:R:3:Z:I:1
H         8.91511410       0.31839035       6.66362186         0.00000000       0.00000000       0.00000000          1
H         4.86659879       6.36734503       4.50695575         0.00000000       0.00000000       0.00000000          1
H         3.90875812      14.96637162       9.26501382         0.00000000       0.00000000       0.00000000          1
H        10.94923733       2.62502033       2.36607948         0.00000000       0.00000000       0.00000000          1
H         8.56567110       3.92889518       4.09002535         0.00000000       0.00000000       0.00000000          1
H         1.11343852       6.12837474       7.12471788         0.00000000       0.00000000       0.00000000          1
6
pbc=[F, F, F] list_num_par=6 energy=-0.11089077 iter=309 frozen=false Lattice="15.00000000 0.00000000 0.00000000 0.00000000 15.00000000 0.00000000 0.00000000 0.00000000 15.00000000" energy_frozen_part=0.00000000 Properties=species:S:1:pos:R:3:velocities:R:3:Z:I:1
H         1.14734892       4.38899508      10.82564968         0.00000000       0.00000000       0.00000000          1
H         2.08216737      12.11962070       9.74373210         0.00000000       0.00000000       0.00000000          1