6
pbc=[F, F, F] list_num_par=6 energy=-1.26974174 iter=20000 frozen=false Lattice="15.00000000 0.00000000 0.00000000 0.00000000 15.00000000 0.00000000 0.00000000 0.00000000 15.00000000" energy_frozen_part=0.00000000 Properties=species:S:1:pos:R:3:velocities:R:3:Z:I:1
H        11.95293373       5.29217547      13.13663651         0.00000000       0.00000000       0.00000000          1
H        10.09213926       7.34258661      13.50748431         0.00000000       0.00000000       0.00000000          1
H         8.62534401       6.40674519      11.32185874         0.00000000       0.00000000       0.00000000          1
H         9.24265648       4.68235309      13.43128091         0.00000000       0.00000000       0.00000000          1
H        11.33562447       7.01656559      11.02720819         0.00000000       0.00000000       0.00000000          1
H        10.48613768       4.35632945      10.95101051         0.00000000       0.00000000       0.00000000          1
6
pbc=[F, F, F] list_num_par=6 energy=-1.26974174 iter=20000 frozen=false Lattice="15.00000000 0.00000000 0.00000000 0.00000000 15.00000000 0.00000000 0.00000000 0.00000000 15.00000000" energy_frozen_part=0.00000000 Properties=species:S:1:pos:R:3:velocities:R:3:Z:I:1
H        11.95292883       5.29219666      13.13667940         0.00000000       0.00000000       0.00000000          1
H        10.09210668       7.34259464      13.50747412         0.00000000       0.00000000       0.00000000          1
H         8.62538682       6.40675005      11.32179583         0.00000000       0.00000000       0.00000000          1
H         9.24265036       4.68235033      13.43123092         0.00000000       0.00000000       0.00000000          1
H        11.33566930       7.01658722      11.02723324         0.00000000       0.00000000       0.00000000          1
H        10.48620720       4.35634553      10.95099022         0.00000000       0.00000000       0.00000000          1
6
pbc=[F, F, F] list_num_par=6 energy=-1.26974174 iter=20000 frozen=false Lattice="15.00000000 0.00000000 0.00000000 0.00000000 15.00000000 0.00000000 0.00000000 0.00000000 15.00000000" energy_frozen_part=0.00000000 Properties=species:S:1:pos:R:3:velocities:R:3:Z:I:1
H        11.95294256       5.29220716      13.13668679         0.00000000       0.00000000       0.00000000          1
H        10.09210930       7.34260595      13.50746093         0.00000000       0.00000000       0.00000000          1
H         8.62539674       6.40673091      11.32178713         0.00000000       0.00000000       0.00000000          1
H         9.24265910       4.68236231      13.43124795         0.00000000       0.00000000       0.00000000          1
H        11.33566878       7.01657675      11.02722904         0.00000000       0.00000000       0.00000000          1
H        10.48621844       4.35632243      10.95101939         0.00000000       0.00000000       0.00000000          1
6
pbc=[F, F, F] list_num_par=6 energy=-1.26974174 iter=20000 frozen=false Lattice="15.00000000 0.00000000 0.00000000 0.00000000 15.00000000 0.00000000 0.00000000 0.00000000 15.00000000" energy_frozen_part=0.00000000 Properties=species:S:1:pos:R:3:velocities:R:3:Z:I:1
H        11.95290249       5.29217851      13.13685952         0.00000000       0.00000000       0.00000000          1
H        10.09221009       7.34272361      13.50745027         0.00000000       0.00000000       0.00000000          1
H         8.62557200       6.40690527      11.32170077         0.00000000       0.00000000       0.00000000          1
H         9.24255698       4.68254264      13.43124219         0.00000000       0.00000000       0.00000000          1
H        11.33592029       7.01653374      11.02731826         0.00000000       0.00000000       0.00000000          1
H        10.48626663       4.35635422      10.95110700         0.00000000       0.00000000       0.00000000          1
6
pbc=[F, F, F] list_num_par=6 energy=-1.26974174 iter=20000 frozen=false Lattice="15.00000000 0.00000000 0.00000000 0.00000000 15.00000000 0.00000000 0.00000000 0.00000000 15.00000000" energy_frozen_part=0.00000000 Properties=species:S:1:pos:R:3:velocities:R:3:Z:I:1
H        11.95292432       5.29216134      13.13665994         0.00000000       0.00000000       0.00000000          1
H        10.09214514       7.34258787      13.50749271         0.00000000       0.00000000       0.00000000          1
H         8.62536412       6.40674612      11.32184472         0.00000000       0.00000000       0.00000000          1
H         9.24264023       4.68235913      13.43127615         0.00000000       0.00000000       0.00000000          1
H        11.33564249       7.01655614      11.02722496         0.00000000       0.00000000       0.00000000          1
H        10.48615103       4.35631808      10.95101615         0.00000000       0.00000000       0.00000000          1
6
pbc=[F, F, F] list_num_par=6 energy=-1.26974174 iter=20000 frozen=false Lattice="15.00000000 0.00000000 0.00000000 0.00000000 15.00000000 0.00000000 0.00000000 0.00000000 15.00000000" energy_frozen_part=0.00000000 Properties=species:S:1:pos:R:3:velocities:R:3:Z:I:1
H        11.95287489       5.29216511      13.13664622         0.00000000       0.00000000       0.00000000          1
H        10.09222324       7.34276850      13.50715142         0.00000000       0.00000000       0.00000000          1
H         8.62564331       6.40697354      11.32135428         0.00000000       0.00000000       0.00000000          1
H         9.24249643       4.68260864      13.43093044         0.00000000       0.00000000       0.00000000          1
H        11.33601077       7.01652617      11.02705851         0.00000000       0.00000000       0.00000000          1
H        10.48629978       4.35636308      10.95084608         0.00000000       0.00000000       0.00000000          1
6
pbc=[F, F, F] list_num_par=6 energy=-1.26974174 iter=20000 frozen=false Lattice="15.00000000 0.00000000 0.00000000 0.00000000 15.00000000 0.00000000 0.00000000 0.00000000 15.00000000" energy_frozen_part=0.00000000 Properties=species:S:1:pos:R:3:velocities:R:3:Z:I:1
H        11.95290757       5.29197613      13.13667074         0.00000000       0.00000000       0.00000000          1
H        10.09222811       7.34252965      13.50734174         0.00000000       0.00000000       0.00000000          1
H         8.62556506       6.40679822      11.32156721         0.00000000       0.00000000       0.00000000          1
H         9.24255897       4.68235095      13.43104720         0.00000000       0.00000000       0.00000000          1
H        11.33592138       7.01642398      11.02719011         0.00000000       0.00000000       0.00000000          1
H        10.48625216       4.35624817      10.95089279         0.00000000       0.00000000       0.00000000          1
6
pbc=[F, F, F] list_num_par=6 energy=-1.26974174 iter=20000 frozen=false Lattice="15.00000000 0.00000000 0.00000000 0.00000000 15.00000000 0.00000000 0.00000000 0.00000000 15.00000000" energy_frozen_part=0.00000000 Properties=species:S:1:pos:R:3:velocities:R:3:Z:I:1
H        11.95285382       5.29200501      13.13607342         0.00000000       0.00000000       0.00000000          1
H        10.09197843       7.34216457      13.50796373         0.00000000       0.00000000       0.00000000          1
H         8.62500033       6.40713643      11.32210623         0.00000000       0.00000000       0.00000000          1
H         9.24264303       4.68190780      13.43075015         0.00000000       0.00000000       0.00000000          1
H        11.33521209       7.01723140      11.02742797         0.00000000       0.00000000       0.00000000          1
H        10.48586587       4.35697571      10.95021371         0.00000000       0.00000000       0.00000000          1
6
pbc=[F, F, F] list_num_par=6 energy=-1.26974174 iter=20000 frozen=false Lattice="15.00000000 0.00000000 0.00000000 0.00000000 15.00000000 0.00000000 0.00000000 0.00000000 15.00000000" energy_frozen_part=0.00000000 Properties=species:S:1:pos:R:3:velocities:R:3:Z:I:1
H        11.95287565       5.29215659      13.13680781         0.00000000       0.00000000       0.00000000          1
H        10.09203039       7.34258492      13.50732137         0.00000000       0.00000000       0.00000000          1
H         8.62553204       6.40665236      11.32151957         0.00000000       0.00000000       0.00000000          1
H         9.24256269       4.68234397      13.43110302         0.00000000       0.00000000       0.00000000          1
H        11.33584758       7.01646922      11.02723117         0.00000000       0.00000000       0.00000000          1
H        10.48638790       4.35622706      10.95101762         0.00000000       0.00000000       0.00000000          1
6
pbc=[F, F, F] list_num_par=6 energy=-1.26974174 iter=20000 frozen=false Lattice="15.00000000 0.00000000 0.00000000 0.00000000 15.00000000 0.00000000 0.00000000 0.00000000 15.00000000" energy_frozen_part=0.00000000 Properties=species:S:1:pos:R:3:velocities:R:3:Z:I:1
H        11.95283316       5.29212461      13.13669693         0.00000000       0.00000000       0.00000000          1
H        10.09218281       7.34273530      13.50719800         0.00000000       0.00000000       0.00000000          1
H         8.62561966       6.40695942      11.32137353         0.00000000       0.00000000       0.00000000          1
H         9.24245523       4.68257947      13.43094329         0.00000000       0.00000000       0.00000000          1
H        11.33599700       7.01651976      11.02712912         0.00000000       0.00000000       0.00000000          1
H        10.48628250       4.35636005      10.95086869         0.00000000       0.00000000       0.00000000          1
6
pbc=[F, F, F] list_num_par=6 energy=-1.26974174 iter=20000 frozen=false Lattice="15.00000000 0.00000000 0.00000000 0.00000000 15.00000000 0.00000000 0.00000000 0.00000000 15.00000000" energy_frozen_part=0.00000000 Properties=species:S:1:pos:R:3:velocities:R:3:Z:I:1
H        11.95287407       5.29217510      13.13664778         0.00000000       0.00000000       0.00000000          1
H        10.09219153       7.34274636      13.50718517         0.00000000       0.00000000       0.00000000          1
H         8.62562207       6.40696487      11.32137178         0.00000000       0.00000000       0.00000000          1
H         9.24250612       4.68258135      13.43093424         0.00000000       0.00000000       0.00000000          1
H        11.33598921       7.01656581      11.02709920         0.00000000       0.00000000       0.00000000          1
H        10.48629898       4.35639381      10.95083529         0.00000000       0.00000000       0.00000000          1
6
pbc=[F, F, F] list_num_par=6 energy=-1.26974174 iter=20000 frozen=false Lattice="15.00000000 0.00000000 0.00000000 0.00000000 15.00000000 0.00000000 0.00000000 0.00000000 15.00000000" energy_frozen_part=0.00000000 Properties=species:S:1:pos:R:3:velocities:R:3:Z:I:1
H        11.95293757       5.29215676      13.13664786         0.00000000       0.00000000       0.00000000          1
H        10.09214197       7.34258271      13.50749473         0.00000000       0.00000000       0.00000000          1
H         8.62534657       6.40674104      11.32186054         0.00000000       0.00000000       0.00000000          1
H         9.24266057       4.68234679      13.43128688         0.00000000       0.00000000       0.00000000          1
H        11.33562548       7.01655886      11.02723351         0.00000000       0.00000000       0.00000000          1
H        10.48613841       4.35632631      10.95101210         0.00000000       0.00000000       0.00000000          1
6
pbc=[F, F, F] list_num_par=6 energy=-1.26974174 iter=20000 frozen=false Lattice="15.00000000 0.00000000 0.00000000 0.00000000 15.00000000 0.00000000 0.00000000 0.00000000 15.00000000" energy_frozen_part=0.00000000 Properties=species:S:1:pos:R:3:velocities:R:3:Z:I:1
H        11.95293127       5.29218715      13.13666015         0.00000000       0.00000000       0.00000000          1
H        10.09212082       7.34259107      13.50746848         0.00000000       0.00000000       0.00000000          1
H         8.62537940       6.40675323      11.32179250         0.00000000       0.00000000       0.00000000          1
H         9.24264941       4.68234618      13.43121967         0.00000000       0.00000000       0.00000000          1
H        11.33566182       7.01659130      11.02722999         0.00000000       0.00000000       0.00000000          1
H        10.48619607       4.35635787      10.95097578         0.00000000       0.00000000       0.00000000          1
6
pbc=[F, F, F] list_num_par=6 energy=-1.26974174 iter=20000 frozen=false Lattice="15.00000000 0.00000000 0.00000000 0.00000000 15.00000000 0.00000000 0.00000000 0.00000000 15.00000000" energy_frozen_part=0.00000000 Properties=species:S:1:pos:R:3:velocities:R:3:Z:I:1
H        11.95284172       5.29212944      13.13668470         0.00000000       0.00000000       0.00000000          1
H        10.09219667       7.34275039      13.50717098         0.00000000       0.00000000       0.00000000          1
H         8.62562177       6.40695890      11.32136210         0.00000000       0.00000000       0.00000000          1
H         9.24246248       4.68259056      13.43095293         0.00000000       0.00000000       0.00000000          1
H        11.33600213       7.01649672      11.02710109         0.00000000       0.00000000       0.00000000          1
H        10.48626767       4.35634633      10.95087403         0.00000000       0.00000000       0.00000000          1
6
pbc=[F, F, F] list_num_par=6 energy=-1.26974174 iter=20000 frozen=false Lattice="15.00000000 0.00000000 0.00000000 0.00000000 15.00000000 0.00000000 0.00000000 0.00000000 15.00000000" energy_frozen_part=0.00000000 Properties=species:S:1:pos:R:3:velocities:R:3:Z:I:1
H        11.95299641       5.29220568      13.13662552         0.00000000       0.00000000       0.00000000          1
H        10.09218794       7.34261371      13.50745687         0.00000000       0.00000000       0.00000000          1
H         8.62536342       6.40672404      11.32186108         0.00000000       0.00000000       0.00000000          1
H         9.24272717       4.68236732      13.43130502         0.00000000       0.00000000       0.00000000          1
H        11.33563840       7.01655907      11.02717951         0.00000000       0.00000000       0.00000000          1
H        10.48617247       4.35631610      10.95102262         0.00000000       0.00000000       0.00000000          1
6
pbc=[F, F, F] list_num_par=6 energy=-1.26974174 iter=20000 frozen=false Lattice="15.00000000 0.00000000 0.00000000 0.00000000 15.00000000 0.00000000 0.00000000 0.00000000 15.00000000" energy_frozen_part=0.00000000 Properties=species:S:1:pos:R:3:velocities:R:3:Z:I:1
H        11.95291644       5.29192121      13.13665042         0.00000000       0.00000000       0.00000000          1
H        10.09230883       7.34254211      13.50732211         0.00000000       0.00000000       0.00000000          1
H         8.62560703       6.40684382      11.32156852         0.00000000       0.00000000       0.00000000          1
H         9.24254385       4.68239723      13.43105932         0.00000000       0.00000000       0.00000000          1
H        11.33597731       7.01636612      11.02716196         0.00000000       0.00000000       0.00000000          1
H        10.48621470       4.35622008      10.95089547         0.00000000       0.00000000       0.00000000          1
6
pbc=[F, F, F] list_num_par=6 energy=-1.26974174 iter=20000 frozen=false Lattice="15.00000000 0.00000000 0.00000000 0.00000000 15.00000000 0.00000000 0.00000000 0.00000000 15.00000000" energy_frozen_part=0.00000000 Properties=species:S:1:pos:R:3:velocities:R:3:Z:I:1
H        11.95284289       5.29202798      13.13607182         0.00000000       0.00000000       0.00000000          1
H        10.09194948       7.34215119      13.50796568         0.00000000       0.00000000       0.00000000          1
H         8.62499202       6.40712502      11.32209403         0.00000000       0.00000000       0.00000000          1
H         9.24263336       4.68189394      13.43073371         0.00000000       0.00000000       0.00000000          1
H        11.33519582       7.01725417      11.02742505         0.00000000       0.00000000       0.00000000          1
H        10.48588718       4.35699209      10.95020220         0.00000000       0.00000000       0.00000000          1
6
pbc=[F, F, F] list_num_par=6 energy=-1.26974174 iter=20000 frozen=false Lattice="15.00000000 0.00000000 0.00000000 0.00000000 15.00000000 0.00000000 0.00000000 0.00000000 15.00000000" energy_frozen_part=0.00000000 Properties=species:S:1:pos:R:3:velocities:R:3:Z:I:1
H        11.95298523       5.29215321      13.13664183         0.00000000       0.00000000       0.00000000          1
H        10.09220384       7.34257321      13.50747506         0.00000000       0.00000000       0.00000000          1
H         8.62541125       6.40673319      11.32184200         0.00000000       0.00000000       0.00000000          1
H         9.24270362       4.68234072      13.43127456         0.00000000       0.00000000       0.00000000          1
H        11.33568297       7.01653581      11.02720584         0.00000000       0.00000000       0.00000000          1
H        10.48619141       4.35630432      10.95101331         0.00000000       0.00000000       0.00000000          1
6
pbc=[F, F, F] list_num_par=6 energy=-1.26974174 iter=20000 frozen=false Lattice="15.00000000 0.00000000 0.00000000 0.00000000 15.00000000 0.00000000 0.00000000 0.00000000 15.00000000" energy_frozen_part=0.00000000 Properties=species:S:1:pos:R:3:velocities:R:3:Z:I:1
H        11.95278938       5.29192661      13.13657253         0.00000000       0.00000000       0.00000000          1
H        10.09234625       7.34269643      13.50722412         0.00000000       0.00000000       0.00000000          1
H         8.62559382       6.40712229      11.32145173         0.00000000       0.00000000       0.00000000          1
H         9.24237115       4.68262242      13.43093782         0.00000000       0.00000000       0.00000000          1
H        11.33601621       7.01642502      11.02707593         0.00000000       0.00000000       0.00000000          1
H        10.48603893       4.35634569      10.95079560         0.00000000       0.00000000       0.00000000          1
6
pbc=[F, F, F] list_num_par=6 energy=-1.26974174 iter=20000 frozen=false Lattice="15.00000000 0.00000000 0.00000000 0.00000000 15.00000000 0.00000000 0.00000000 0.00000000 15.00000000" energy_frozen_part=0.00000000 Properties=species:S:1:pos:R:3:velocities:R:3:Z:I:1
H        11.95258864       5.29195683      13.13687996         0.00000000       0.00000000       0.00000000          1
H        10.09190809       7.34254246      13.50736966         0.00000000       0.00000000       0.00000000          1
H         8.62529200       6.40664433      11.32163235         0.00000000       0.00000000       0.00000000          1
H         9.24223842       4.68235632      13.43125217         0.00000000       0.00000000       0.00000000          1
H        11.33564348       7.01625097      11.02726040         0.00000000       0.00000000       0.00000000          1
H        10.48598318       4.35607316      10.95114094         0.00000000       0.00000000       0.00000000          1
6
pbc=[F, F, F] list_num_par=6 energy=-1.26974174 iter=20000 frozen=false Lattice="15.00000000 0.00000000 0.00000000 0.00000000 15.00000000 0.00000000 0.00000000 0.00000000 15.00000000" energy_frozen_part=0.00000000 Properties=species:S:1:pos:R:3:velocities:R:3:Z:I:1
H        11.95294488       5.29217662      13.13667249         0.00000000       0.00000000       0.00000000          1
H        10.09212398       7.34257941      13.50746903         0.00000000       0.00000000       0.00000000          1
H         8.62536836       6.40669297      11.32183231         0.00000000       0.00000000       0.00000000          1
H         9.24267101       4.68233399      13.43129145         0.00000000       0.00000000       0.00000000          1
H        11.33563712       7.01654230      11.02721489         0.00000000       0.00000000       0.00000000          1
H        10.48619195       4.35629522      10.95103116         0.00000000       0.00000000       0.00000000          1
6
pbc=[F, F, F] list_num_par=6 energy=-1.26974174 iter=20000 frozen=false Lattice="15.00000000 0.00000000 0.00000000 0.00000000 15.00000000 0.00000000 0.00000000 0.00000000 15.00000000" energy_frozen_part=0.00000000 Properties=species:S:1:pos:R:3:velocities:R:3:Z:I:1
H        11.95261970       5.29197460      13.13686971         0.00000000       0.00000000       0.00000000          1
H        10.09194693       7.34257493      13.50731795         0.00000000       0.00000000       0.00000000          1
H         8.62532964       6.40664779      11.32160011         0.00000000       0.00000000       0.00000000          1
H         9.24225821       4.68239037      13.43125167         0.00000000       0.00000000       0.00000000          1
H        11.33568282       7.01622628      11.02721701         0.00000000       0.00000000       0.00000000          1
H        10.48600511       4.35604859      10.95115415         0.00000000       0.00000000       0.00000000          1
6
pbc=[F, F, F] list_num_par=6 energy=-1.26974174 iter=20000 frozen=false Lattice="15.00000000 0.00000000 0.00000000 0.00000000 15.00000000 0.00000000 0.00000000 0.00000000 15.00000000" energy_frozen_part=0.00000000 Properties=species:S:1:pos:R:3:velocities:R:3:Z:I:1
H        11.95292695       5.29194739      13.13666880         0.00000000       0.00000000       0.00000000          1
H        10.09229897       7.34255010      13.50732638         0.00000000       0.00000000       0.00000000          1
H         8.62561737       6.40683132      11.32155795         0.00000000       0.00000000       0.00000000          1
H         9.24256631       4.68239190      13.43104558         0.00000000       0.00000000       0.00000000          1
H        11.33597581       7.01638412      11.02716952         0.00000000       0.00000000       0.00000000          1
H        10.48624484       4.35623189      10.95089574         0.00000000       0.00000000       0.00000000          1
6
pbc=[F, F, F] list_num_par=6 energy=-1.26974174 iter=20000 frozen=false Lattice="15.00000000 0.00000000 0.00000000 0.00000000 15.00000000 0.00000000 0.00000000 0.00000000 15.00000000" energy_frozen_part=0.00000000 Properties=species:S:1:pos:R:3:velocities:R:3:Z:I:1
H        11.95292277       5.29220726      13.13667841         0.00000000       0.00000000       0.00000000          1
H        10.09207743       7.34258850      13.50745741         0.00000000       0.00000000       0.00000000          1
H         8.62537844       6.40669618      11.32177313         0.00000000       0.00000000       0.00000000          1
H         9.24265353       4.68233072      13.43122484         0.00000000       0.00000000       0.00000000          1
H        11.33564608       7.01657759      11.02722782         0.00000000       0.00000000       0.00000000          1
H        10.48622488       4.35632143      10.95099150         0.00000000       0.00000000       0.00000000          1
6
pbc=[F, F, F] list_num_par=6 energy=-1.26974174 iter=20000 frozen=false Lattice="15.00000000 0.00000000 0.00000000 0.00000000 15.00000000 0.00000000 0.00000000 0.00000000 15.00000000" energy_frozen_part=0.00000000 Properties=species:S:1:pos:R:3:velocities:R:3:Z:I:1
H        11.95290159       5.29218330      13.13685870         0.00000000       0.00000000       0.00000000          1
H        10.09219139       7.34272385      13.50745568         0.00000000       0.00000000       0.00000000          1
H         8.62556033       6.40689348      11.32170357         0.00000000       0.00000000       0.00000000          1
H         9.24256796       4.68253015      13.43124074         0.00000000       0.00000000       0.00000000          1
H        11.33589776       7.01654908      11.02731828         0.00000000       0.00000000       0.00000000          1
H        10.48627195       4.35636667      10.95110014         0.00000000       0.00000000       0.00000000          1
6
pbc=[F, F, F] list_num_par=6 energy=-1.26974174 iter=20000 frozen=false Lattice="15.00000000 0.00000000 0.00000000 0.00000000 15.00000000 0.00000000 0.00000000 0.00000000 15.00000000" energy_frozen_part=0.00000000 Properties=species:S:1:pos:R:3:velocities:R:3:Z:I:1
H        11.95293765       5.29217082      13.13665769         0.00000000       0.00000000       0.00000000          1
H        10.09214089       7.34259322      13.50748444         0.00000000       0.00000000       0.00000000          1
H         8.62535838       6.40675200      11.32184183         0.00000000       0.00000000       0.00000000          1
H         9.24265194       4.68235501      13.43127658         0.00000000       0.00000000       0.00000000          1
H        11.33563666       7.01656650      11.02722445         0.00000000       0.00000000       0.00000000          1
H        10.48614839       4.35633247      10.95101738         0.00000000       0.00000000       0.00000000          1
6
pbc=[F, F, F] list_num_par=6 energy=-1.26974174 iter=20000 frozen=false Lattice="15.00000000 0.00000000 0.00000000 0.00000000 15.00000000 0.00000000 0.00000000 0.00000000 15.00000000" energy_frozen_part=0.00000000 Properties=species:S:1:pos:R:3:velocities:R:3:Z:I:1
H        11.95284305       5.29202042      13.13606836         0.00000000       0.00000000       0.00000000          1
H        10.09194469       7.34214963      13.50797552         0.00000000       0.00000000       0.00000000          1
H         8.62499044       6.40711745      11.32210956         0.00000000       0.00000000       0.00000000          1
H         9.24264563       4.68188695      13.43074474         0.00000000       0.00000000       0.00000000          1
H        11.33519274       7.01725901      11.02743843         0.00000000       0.00000000       0.00000000          1
H        10.48588488       4.35699424      10.95019824         0.00000000       0.00000000       0.00000000          1
6
pbc=[F, F, F] list_num_par=6 energy=-1.26974174 iter=20000 frozen=false Lattice="15.00000000 0.00000000 0.00000000 0.00000000 15.00000000 0.00000000 0.00000000 0.00000000 15.00000000" energy_frozen_part=0.00000000 Properties=species:S:1:pos:R:3:velocities:R:3:Z:I:1
H        11.95286132       5.29214895      13.13665293         0.00000000       0.00000000       0.00000000          1
H        10.09220794       7.34275967      13.50715421         0.00000000       0.00000000       0.00000000          1
H         8.62564455       6.40695508      11.32134879         0.00000000       0.00000000       0.00000000          1
H         9.24248916       4.68259737      13.43093790         0.00000000       0.00000000       0.00000000          1
H        11.33601533       7.01651226      11.02706686         0.00000000       0.00000000       0.00000000          1
H        10.48629572       4.35635219      10.95085056         0.00000000       0.00000000       0.00000000          1
6
pbc=[F, F, F] list_num_par=6 energy=-1.26974174 iter=20000 frozen=false Lattice="15.00000000 0.00000000 0.00000000 0.00000000 15.00000000 0.00000000 0.00000000 0.00000000 15.00000000" energy_frozen_part=0.00000000 Properties=species:S:1:pos:R:3:velocities:R:3:Z:I:1
H        11.95285146       5.29214648      13.13667812         0.00000000       0.00000000       0.00000000          1
H        10.09219495       7.34275158      13.50716824         0.00000000       0.00000000       0.00000000          1
H         8.62564087       6.40694922      11.32135641         0.00000000       0.00000000       0.00000000          1
H         9.24247944       4.68259317      13.43094794         0.00000000       0.00000000       0.00000000          1
H        11.33601110       7.01649924      11.02709107         0.00000000       0.00000000       0.00000000          1
H        10.48628591       4.35633706      10.95087448         0.00000000       0.00000000       0.00000000          1
6
pbc=[F, F, F] list_num_par=6 energy=-1.26974174 iter=20000 frozen=false Lattice="15.00000000 0.00000000 0.00000000 0.00000000 15.00000000 0.00000000 0.00000000 0.00000000 15.00000000" energy_frozen_part=0.00000000 Properties=species:S:1:pos:R:3:velocities:R:3:Z:I:1
H        11.95298532       5.29223107      13.13667886         0.00000000       0.00000000       0.00000000          1
H        10.09217009       7.34263360      13.50746015         0.00000000       0.00000000       0.00000000          1
H         8.62544800       6.40676619      11.32179176         0.00000000       0.00000000       0.00000000          1
H         9.24271042       4.68238752      13.43123591         0.00000000       0.00000000       0.00000000          1
H        11.33572444       7.01660197      11.02722568         0.00000000       0.00000000       0.00000000          1
H        10.48627170       4.35635822      10.95100258         0.00000000       0.00000000       0.00000000          1
6
pbc=[F, F, F] list_num_par=6 energy=-1.26974174 iter=20000 frozen=false Lattice="15.00000000 0.00000000 0.00000000 0.00000000 15.00000000 0.00000000 0.00000000 0.00000000 15.00000000" energy_frozen_part=0.00000000 Properties=species:S:1:pos:R:3:velocities:R:3:Z:I:1
H        11.95288292       5.29217047      13.13683006         0.00000000       0.00000000       0.00000000          1
H        10.09200221       7.34256482      13.50732367         0.00000000       0.00000000       0.00000000          1