6
pbc=[F, F, F] list_num_par=6 energy=-1.26974174 iter=20000 frozen=false Lattice="15.00000000 0.00000000 0.00000000 0.00000000 15.00000000 0.00000000 0.00000000 0.00000000 15.00000000" energy_frozen_part=0.00000000 Properties=species:S:1:pos:R:3:velocities:R:3:Z:I:1
H         6.85099627       2.33749962       3.13026285         0.00000000       0.00000000       0.00000000          1
H         8.95577734       4.77088708       5.42309343         0.00000000       0.00000000       0.00000000          1
H         9.13073312       2.07210110       4.72294189         0.00000000       0.00000000       0.00000000          1
H         6.67603963       5.03629278       3.83040474         0.00000000       0.00000000       0.00000000          1
H         9.03839145       4.02873811       2.73113209         0.00000000       0.00000000       0.00000000          1
H         6.76838080       3.07965882       5.82222025         0.00000000       0.00000000       0.00000000          1
6
pbc=[F, F, F] list_num_par=6 energy=-1.26974174 iter=20000 frozen=false Lattice="15.00000000 0.00000000 0.00000000 0.00000000 15.00000000 0.00000000 0.00000000 0.00000000 15.00000000" energy_frozen_part=0.00000000 Properties=species:S:1:pos:R:3:velocities:R:3:Z:I:1
H         9.65096158       2.16241464       6.68478893         0.00000000       0.00000000       0.00000000          1
H         7.88320632       2.10865212       8.84729558         0.00000000       0.00000000       0.00000000          1
H        10.44848968       1.03491567       9.11316385         0.00000000       0.00000000       0.00000000          1
H        11.55071481       3.45946396       8.26999170         0.00000000       0.00000000       0.00000000          1
H         8.98543045       4.53321140       8.00413221         0.00000000       0.00000000       0.00000000          1
H         9.78295442       3.40571735      10.43249852         0.00000000       0.00000000       0.00000000          1
6
pbc=[F, F, F] list_num_par=6 energy=-1.26974174 iter=20000 frozen=false Lattice="15.00000000 0.00000000 0.00000000 0.00000000 15.00000000 0.00000000 0.00000000 0.00000000 15.00000000" energy_frozen_part=0.00000000 Properties=species:S:1:pos:R:3:velocities:R:3:Z:I:1
H         6.85100416       2.33752601       3.13027587         0.00000000       0.00000000       0.00000000          1
H         8.95585302       4.77088715       5.42306372         0.00000000       0.00000000       0.00000000          1
H         9.13078467       2.07210504       4.72289244         0.00000000       0.00000000       0.00000000          1
H         6.67606980       5.03630870       3.83044976         0.00000000       0.00000000       0.00000000          1
H         9.03838613       4.02875962       2.73108961         0.00000000       0.00000000       0.00000000          1
H         6.76846492       3.07965593       5.82225296         0.00000000       0.00000000       0.00000000          1
6
pbc=[F, F, F] list_num_par=6 energy=-1.26974174 iter=20000 frozen=false Lattice="15.00000000 0.00000000 0.00000000 0.00000000 15.00000000 0.00000000 0.00000000 0.00000000 15.00000000" energy_frozen_part=0.00000000 Properties=species:S:1:pos:R:3:velocities:R:3:Z:I:1
H         6.85100075       2.33751283       3.13022787         0.00000000       0.00000000       0.00000000          1
H         8.95577794       4.77087062       5.42309559         0.00000000       0.00000000       0.00000000          1
H         9.13072427       2.07208716       4.72293049         0.00000000       0.00000000       0.00000000          1
H         6.67605369       5.03630166       3.83039645         0.00000000       0.00000000       0.00000000          1
H         9.03840716       4.02874152       2.73112877         0.00000000       0.00000000       0.00000000          1
H         6.76836166       3.07964960       5.82219062         0.00000000       0.00000000       0.00000000          1
6
pbc=[F, F, F] list_num_par=6 energy=-1.26974174 iter=20000 frozen=false Lattice="15.00000000 0.00000000 0.00000000 0.00000000 15.00000000 0.00000000 0.00000000 0.00000000 15.00000000" energy_frozen_part=0.00000000 Properties=species:S:1:pos:R:3:velocities:R:3:Z:I:1
H         6.85103342       2.33755295       3.13018154         0.00000000       0.00000000       0.00000000          1
H         8.95581163       4.77086551       5.42309767         0.00000000       0.00000000       0.00000000          1
H         9.13074350       2.07208765       4.72290475         0.00000000       0.00000000       0.00000000          1
H         6.67610801       5.03633217       3.83037221         0.00000000       0.00000000       0.00000000          1
H         9.03846651       4.02876377       2.73112660         0.00000000       0.00000000       0.00000000          1
H         6.76838272       3.07965687       5.82215807         0.00000000       0.00000000       0.00000000          1
6
pbc=[F, F, F] list_num_par=6 energy=-1.26974174 iter=20000 frozen=false Lattice="15.00000000 0.00000000 0.00000000 0.00000000 15.00000000 0.00000000 0.00000000 0.00000000 15.00000000" energy_frozen_part=0.00000000 Properties=species:S:1:pos:R:3:velocities:R:3:Z:I:1
H         6.85099639       2.33750138       3.13028424         0.00000000       0.00000000       0.00000000          1
H         8.95583452       4.77085591       5.42309797         0.00000000       0.00000000       0.00000000          1
H         9.13073551       2.07205528       4.72296224         0.00000000       0.00000000       0.00000000          1
H         6.67609329       5.03629345       3.83041627         0.00000000       0.00000000       0.00000000          1
H         9.03842494       4.02869259       2.73114009         0.00000000       0.00000000       0.00000000          1
H         6.76840970       3.07966652       5.82224586         0.00000000       0.00000000       0.00000000          1
6
pbc=[F, F, F] list_num_par=6 energy=-1.26974174 iter=20000 frozen=false Lattice="15.00000000 0.00000000 0.00000000 0.00000000 15.00000000 0.00000000 0.00000000 0.00000000 15.00000000" energy_frozen_part=0.00000000 Properties=species:S:1:pos:R:3:velocities:R:3:Z:I:1
H         6.85099542       2.33752059       3.13024835         0.00000000       0.00000000       0.00000000          1
H         8.95578404       4.77088009       5.42309606         0.00000000       0.00000000       0.00000000          1
H         9.13074093       2.07209529       4.72291944         0.00000000       0.00000000       0.00000000          1
H         6.67604663       5.03630280       3.83042475         0.00000000       0.00000000       0.00000000          1
H         9.03838709       4.02875587       2.73112367         0.00000000       0.00000000       0.00000000          1
H         6.76839196       3.07964467       5.82221923         0.00000000       0.00000000       0.00000000          1
6
pbc=[F, F, F] list_num_par=6 energy=-1.26974174 iter=20000 frozen=false Lattice="15.00000000 0.00000000 0.00000000 0.00000000 15.00000000 0.00000000 0.00000000 0.00000000 15.00000000" energy_frozen_part=0.00000000 Properties=species:S:1:pos:R:3:velocities:R:3:Z:I:1
H         6.85097966       2.33751027       3.13023886         0.00000000       0.00000000       0.00000000          1
H         8.95578750       4.77087221       5.42307867         0.00000000       0.00000000       0.00000000          1
H         9.13070876       2.07207535       4.72292597         0.00000000       0.00000000       0.00000000          1
H         6.67605502       5.03629560       3.83039499         0.00000000       0.00000000       0.00000000          1
H         9.03839943       4.02871823       2.73111611         0.00000000       0.00000000       0.00000000          1
H         6.76836999       3.07965485       5.82220339         0.00000000       0.00000000       0.00000000          1
6
pbc=[F, F, F] list_num_par=6 energy=-1.26974174 iter=20000 frozen=false Lattice="15.00000000 0.00000000 0.00000000 0.00000000 15.00000000 0.00000000 0.00000000 0.00000000 15.00000000" energy_frozen_part=0.00000000 Properties=species:S:1:pos:R:3:velocities:R:3:Z:I:1
H         9.65088068       2.16242042       6.68476169         0.00000000       0.00000000       0.00000000          1
H         7.88319858       2.10882450       8.84733431         0.00000000       0.00000000       0.00000000          1
H        10.44843332       1.03496286       9.11314718         0.00000000       0.00000000       0.00000000          1
H        11.55074740       3.45943582       8.26986495         0.00000000       0.00000000       0.00000000          1
H         8.98550836       4.53328994       8.00404777         0.00000000       0.00000000       0.00000000          1
H         9.78306457       3.40584312      10.43243398         0.00000000       0.00000000       0.00000000          1
6
pbc=[F, F, F] list_num_par=6 energy=-1.26974174 iter=20000 frozen=false Lattice="15.00000000 0.00000000 0.00000000 0.00000000 15.00000000 0.00000000 0.00000000 0.00000000 15.00000000" energy_frozen_part=0.00000000 Properties=species:S:1:pos:R:3:velocities:R:3:Z:I:1
H         9.65088295       2.16242487       6.68477757         0.00000000       0.00000000       0.00000000          1
H         7.88318290       2.10886064       8.84733436         0.00000000       0.00000000       0.00000000          1
H        10.44840546       1.03496139       9.11315884         0.00000000       0.00000000       0.00000000          1
H        11.55076618       3.45941556       8.26987594         0.00000000       0.00000000       0.00000000          1
H         8.98554495       4.53331329       8.00405570         0.00000000       0.00000000       0.00000000          1
H         9.78306756       3.40584813      10.43243436         0.00000000       0.00000000       0.00000000          1
6
pbc=[F, F, F] list_num_par=6 energy=-1.26974174 iter=20000 frozen=false Lattice="15.00000000 0.00000000 0.00000000 0.00000000 15.00000000 0.00000000 0.00000000 0.00000000 15.00000000" energy_frozen_part=0.00000000 Properties=species:S:1:pos:R:3:velocities:R:3:Z:I:1
H         6.85094967       2.33754720       3.13027507         0.00000000       0.00000000       0.00000000          1
H         8.95586757       4.77083117       5.42308802         0.00000000       0.00000000       0.00000000          1
H         9.13069862       2.07203714       4.72292566         0.00000000       0.00000000       0.00000000          1
H         6.67611137       5.03633989       3.83043919         0.00000000       0.00000000       0.00000000          1
H         9.03840368       4.02869534       2.73111943         0.00000000       0.00000000       0.00000000          1
H         6.76840615       3.07968859       5.82224673         0.00000000       0.00000000       0.00000000          1
6
pbc=[F, F, F] list_num_par=6 energy=-1.26974174 iter=20000 frozen=false Lattice="15.00000000 0.00000000 0.00000000 0.00000000 15.00000000 0.00000000 0.00000000 0.00000000 15.00000000" energy_frozen_part=0.00000000 Properties=species:S:1:pos:R:3:velocities:R:3:Z:I:1
H         9.65096175       2.16237706       6.68485478         0.00000000       0.00000000       0.00000000          1
H         7.88321891       2.10865819       8.84738106         0.00000000       0.00000000       0.00000000          1
H        10.44848828       1.03488725       9.11322929         0.00000000       0.00000000       0.00000000          1
H        11.55073668       3.45942048       8.27004097         0.00000000       0.00000000       0.00000000          1
H         8.98546414       4.53318736       8.00418929         0.00000000       0.00000000       0.00000000          1
H         9.78300180       3.40570504      10.43256522         0.00000000       0.00000000       0.00000000          1
6
pbc=[F, F, F] list_num_par=6 energy=-1.26974174 iter=20000 frozen=false Lattice="15.00000000 0.00000000 0.00000000 0.00000000 15.00000000 0.00000000 0.00000000 0.00000000 15.00000000" energy_frozen_part=0.00000000 Properties=species:S:1:pos:R:3:velocities:R:3:Z:I:1
H         6.85099435       2.33751573       3.13025397         0.00000000       0.00000000       0.00000000          1
H         8.95578542       4.77088994       5.42309843         0.00000000       0.00000000       0.00000000          1
H         9.13073185       2.07209904       4.72293541         0.00000000       0.00000000       0.00000000          1
H         6.67605066       5.03630297       3.83041912         0.00000000       0.00000000       0.00000000          1
H         9.03839901       4.02874700       2.73113699         0.00000000       0.00000000       0.00000000          1
H         6.76838918       3.07965140       5.82222234         0.00000000       0.00000000       0.00000000          1
6
pbc=[F, F, F] list_num_par=6 energy=-1.26974174 iter=20000 frozen=false Lattice="15.00000000 0.00000000 0.00000000 0.00000000 15.00000000 0.00000000 0.00000000 0.00000000 15.00000000" energy_frozen_part=0.00000000 Properties=species:S:1:pos:R:3:velocities:R:3:Z:I:1
H         9.65086916       2.16242112       6.68477802         0.00000000       0.00000000       0.00000000          1
H         7.88318500       2.10886279       8.84734613         0.00000000       0.00000000       0.00000000          1
H        10.44840784       1.03495466       9.11316293         0.00000000       0.00000000       0.00000000          1
H        11.55076416       3.45940367       8.26986987         0.00000000       0.00000000       0.00000000          1
H         8.98554070       4.53331580       8.00405127         0.00000000       0.00000000       0.00000000          1
H         9.78307196       3.40585137      10.43243499         0.00000000       0.00000000       0.00000000          1
6
pbc=[F, F, F] list_num_par=6 energy=-1.26974174 iter=20000 frozen=false Lattice="15.00000000 0.00000000 0.00000000 0.00000000 15.00000000 0.00000000 0.00000000 0.00000000 15.00000000" energy_frozen_part=0.00000000 Properties=species:S:1:pos:R:3:velocities:R:3:Z:I:1
H         6.85103715       2.33755523       3.13018752         0.00000000       0.00000000       0.00000000          1
H         8.95581994       4.77086628       5.42308790         0.00000000       0.00000000       0.00000000          1
H         9.13074225       2.07208145       4.72290131         0.00000000       0.00000000       0.00000000          1
H         6.67611473       5.03633353       3.83036971         0.00000000       0.00000000       0.00000000          1
H         9.03847093       4.02874937       2.73111317         0.00000000       0.00000000       0.00000000          1
H         6.76839067       3.07966390       5.82216046         0.00000000       0.00000000       0.00000000          1
6
pbc=[F, F, F] list_num_par=6 energy=-1.26974174 iter=20000 frozen=false Lattice="15.00000000 0.00000000 0.00000000 0.00000000 15.00000000 0.00000000 0.00000000 0.00000000 15.00000000" energy_frozen_part=0.00000000 Properties=species:S:1:pos:R:3:velocities:R:3:Z:I:1
H         6.85099185       2.33749193       3.13030143         0.00000000       0.00000000       0.00000000          1
H         8.95584064       4.77085497       5.42310043         0.00000000       0.00000000       0.00000000          1
H         9.13074121       2.07206115       4.72296004         0.00000000       0.00000000       0.00000000          1
H         6.67609050       5.03628180       3.83044349         0.00000000       0.00000000       0.00000000          1
H         9.03841705       4.02868948       2.73114018         0.00000000       0.00000000       0.00000000          1
H         6.76842201       3.07965862       5.82226644         0.00000000       0.00000000       0.00000000          1
6
pbc=[F, F, F] list_num_par=6 energy=-1.26974174 iter=20000 frozen=false Lattice="15.00000000 0.00000000 0.00000000 0.00000000 15.00000000 0.00000000 0.00000000 0.00000000 15.00000000" energy_frozen_part=0.00000000 Properties=species:S:1:pos:R:3:velocities:R:3:Z:I:1
H         6.85093040       2.33754773       3.13026338         0.00000000       0.00000000       0.00000000          1
H         8.95584619       4.77082975       5.42307738         0.00000000       0.00000000       0.00000000          1
H         9.13066969       2.07202876       4.72293099         0.00000000       0.00000000       0.00000000          1
H         6.67610337       5.03634087       3.83041900         0.00000000       0.00000000       0.00000000          1
H         9.03840268       4.02867606       2.73112064         0.00000000       0.00000000       0.00000000          1
H         6.76837532       3.07969658       5.82223006         0.00000000       0.00000000       0.00000000          1
6
pbc=[F, F, F] list_num_par=6 energy=-1.26974174 iter=20000 frozen=false Lattice="15.00000000 0.00000000 0.00000000 0.00000000 15.00000000 0.00000000 0.00000000 0.00000000 15.00000000" energy_frozen_part=0.00000000 Properties=species:S:1:pos:R:3:velocities:R:3:Z:I:1
H         6.85099639       2.33750741       3.13028037         0.00000000       0.00000000       0.00000000          1
H         8.95583556       4.77085932       5.42309633         0.00000000       0.00000000       0.00000000          1
H         9.13073175       2.07206405       4.72296051         0.00000000       0.00000000       0.00000000          1
H         6.67609928       5.03630039       3.83042290         0.00000000       0.00000000       0.00000000          1
H         9.03842926       4.02869203       2.73113543         0.00000000       0.00000000       0.00000000          1
H         6.76840792       3.07967581       5.82224725         0.00000000       0.00000000       0.00000000          1
6
pbc=[F, F, F] list_num_par=6 energy=-1.26974174 iter=20000 frozen=false Lattice="15.00000000 0.00000000 0.00000000 0.00000000 15.00000000 0.00000000 0.00000000 0.00000000 15.00000000" energy_frozen_part=0.00000000 Properties=species:S:1:pos:R:3:velocities:R:3:Z:I:1
H         9.65085451       2.16241922       6.68477373         0.00000000       0.00000000       0.00000000          1
H         7.88317290       2.10883666       8.84734211         0.00000000       0.00000000       0.00000000          1
H        10.44839810       1.03494516       9.11314704         0.00000000       0.00000000       0.00000000          1
H        11.55073522       3.45941581       8.26987682         0.00000000       0.00000000       0.00000000          1
H         8.98550652       4.53329686       8.00406653         0.00000000       0.00000000       0.00000000          1
H         9.78305654       3.40582666      10.43244213         0.00000000       0.00000000       0.00000000          1
6
pbc=[F, F, F] list_num_par=6 energy=-1.26974174 iter=20000 frozen=false Lattice="15.00000000 0.00000000 0.00000000 0.00000000 15.00000000 0.00000000 0.00000000 0.00000000 15.00000000" energy_frozen_part=0.00000000 Properties=species:S:1:pos:R:3:velocities:R:3:Z:I:1
H         9.65082911       2.16224961       6.68493691         0.00000000       0.00000000       0.00000000          1
H         7.88293515       2.10861097       8.84733143         0.00000000       0.00000000       0.00000000          1
H        10.44826607       1.03503642       9.11346653         0.00000000       0.00000000       0.00000000          1
H        11.55040847       3.45956723       8.27013664         0.00000000       0.00000000       0.00000000          1
H         8.98508165       4.53314130       8.00400559         0.00000000       0.00000000       0.00000000          1
H         9.78251775       3.40592978      10.43253256         0.00000000       0.00000000       0.00000000          1
6
pbc=[F, F, F] list_num_par=6 energy=-1.26974174 iter=20000 frozen=false Lattice="15.00000000 0.00000000 0.00000000 0.00000000 15.00000000 0.00000000 0.00000000 0.00000000 15.00000000" energy_frozen_part=0.00000000 Properties=species:S:1:pos:R:3:velocities:R:3:Z:I:1
H         9.65095609       2.16237049       6.68485390         0.00000000       0.00000000       0.00000000          1
H         7.88321272       2.10867825       8.84737465         0.00000000       0.00000000       0.00000000          1
H        10.44847752       1.03488586       9.11323004         0.00000000       0.00000000       0.00000000          1
H        11.55074379       3.45941472       8.27003383         0.00000000       0.00000000       0.00000000          1
H         8.98547909       4.53320026       8.00417253         0.00000000       0.00000000       0.00000000          1
H         9.78299534       3.40571382      10.43254841         0.00000000       0.00000000       0.00000000          1
6
pbc=[F, F, F] list_num_par=6 energy=-1.26974174 iter=20000 frozen=false Lattice="15.00000000 0.00000000 0.00000000 0.00000000 15.00000000 0.00000000 0.00000000 0.00000000 15.00000000" energy_frozen_part=0.00000000 Properties=species:S:1:pos:R:3:velocities:R:3:Z:I:1
H         6.85101036       2.33755043       3.13019097         0.00000000       0.00000000       0.00000000          1
H         8.95581881       4.77084000       5.42309487         0.00000000       0.00000000       0.00000000          1
H         9.13071010       2.07205515       4.72291257         0.00000000       0.00000000       0.00000000          1
H         6.67612534       5.03633322       3.83036923         0.00000000       0.00000000       0.00000000          1
H         9.03847283       4.02872075       2.73112449         0.00000000       0.00000000       0.00000000          1
H         6.76836218       3.07966604       5.82216312         0.00000000       0.00000000       0.00000000          1
6
pbc=[F, F, F] list_num_par=6 energy=-1.26974174 iter=20000 frozen=false Lattice="15.00000000 0.00000000 0.00000000 0.00000000 15.00000000 0.00000000 0.00000000 0.00000000 15.00000000" energy_frozen_part=0.00000000 Properties=species:S:1:pos:R:3:velocities:R:3:Z:I:1
H         9.65077032       2.16223187       6.68497874         0.00000000       0.00000000       0.00000000          1
H         7.88293345       2.10873656       8.84742405         0.00000000       0.00000000       0.00000000          1
H        10.44820918       1.03503663       9.11351750         0.00000000       0.00000000       0.00000000          1
H        11.55045300       3.45949431       8.27009793         0.00000000       0.00000000       0.00000000          1
H         8.98517380       4.53319161       8.00400538         0.00000000       0.00000000       0.00000000          1
H         9.78261408       3.40599522      10.43253752         0.00000000       0.00000000       0.00000000          1
6
pbc=[F, F, F] list_num_par=6 energy=-1.26974174 iter=20000 frozen=false Lattice="15.00000000 0.00000000 0.00000000 0.00000000 15.00000000 0.00000000 0.00000000 0.00000000 15.00000000" energy_frozen_part=0.00000000 Properties=species:S:1:pos:R:3:velocities:R:3:Z:I:1
H         9.65088090       2.16242097       6.68476838         0.00000000       0.00000000       0.00000000          1
H         7.88319092       2.10883814       8.84733495         0.00000000       0.00000000       0.00000000          1
H        10.44842527       1.03495323       9.11314391         0.00000000       0.00000000       0.00000000          1
H        11.55075572       3.45941891       8.26987266         0.00000000       0.00000000       0.00000000          1
H         8.98552816       4.53330456       8.00405979         0.00000000       0.00000000       0.00000000          1
H         9.78307345       3.40583205      10.43243562         0.00000000       0.00000000       0.00000000          1
6
pbc=[F, F, F] list_num_par=6 energy=-1.26974174 iter=20000 frozen=false Lattice="15.00000000 0.00000000 0.00000000 0.00000000 15.00000000 0.00000000 0.00000000 0.00000000 15.00000000" energy_frozen_part=0.00000000 Properties=species:S:1:pos:R:3:velocities:R:3:Z:I:1
H         6.85098203       2.33752283       3.13025725         0.00000000       0.00000000       0.00000000          1
H         8.95579880       4.77086785       5.42309161         0.00000000       0.00000000       0.00000000          1
H         9.13071991       2.07208580       4.72293202         0.00000000       0.00000000       0.00000000          1
H         6.67605992       5.03631514       3.83041342         0.00000000       0.00000000       0.00000000          1
H         9.03839687       4.02873131       2.73112484         0.00000000       0.00000000       0.00000000          1
H         6.76838166       3.07966600       5.82222392         0.00000000       0.00000000       0.00000000          1
6
pbc=[F, F, F] list_num_par=6 energy=-1.26974174 iter=20000 frozen=false Lattice="15.00000000 0.00000000 0.00000000 0.00000000 15.00000000 0.00000000 0.00000000 0.00000000 15.00000000" energy_frozen_part=0.00000000 Properties=species:S:1:pos:R:3:velocities:R:3:Z:I:1
H         9.65095376       2.16240989       6.68479576         0.00000000       0.00000000       0.00000000          1
H         7.88320218       2.10865029       8.84730812         0.00000000       0.00000000       0.00000000          1
H        10.44848991       1.03492008       9.11317303         0.00000000       0.00000000       0.00000000          1
H        11.55070333       3.45947619       8.26999884         0.00000000       0.00000000       0.00000000          1
H         8.98541577       4.53320906       8.00413380         0.00000000       0.00000000       0.00000000          1
H         9.78295531       3.40572118      10.43250980         0.00000000       0.00000000       0.00000000          1
6
pbc=[F, F, F] list_num_par=6 energy=-1.26974174 iter=20000 frozen=false Lattice="15.00000000 0.00000000 0.00000000 0.00000000 15.00000000 0.00000000 0.00000000 0.00000000 15.00000000" energy_frozen_part=0.00000000 Properties=species:S:1:pos:R:3:velocities:R:3:Z:I:1
H         6.85098804       2.33751626       3.13025927         0.00000000       0.00000000       0.00000000          1
H         8.95580037       4.77087865       5.42309706         0.00000000       0.00000000       0.00000000          1
H         9.13073000       2.07209277       4.72292868         0.00000000       0.00000000       0.00000000          1
H         6.67605949       5.03630534       3.83042266         0.00000000       0.00000000       0.00000000          1
H         9.03839979       4.02874474       2.73112707         0.00000000       0.00000000       0.00000000          1
H         6.76839095       3.07965686       5.82223098         0.00000000       0.00000000       0.00000000          1
6
pbc=[F, F, F] list_num_par=6 energy=-1.26974174 iter=20000 frozen=false Lattice="15.00000000 0.00000000 0.00000000 0.00000000 15.00000000 0.00000000 0.00000000 0.00000000 15.00000000" energy_frozen_part=0.00000000 Properties=species:S:1:pos:R:3:velocities:R:3:Z:I:1
H         6.85099977       2.33749865       3.13026042         0.00000000       0.00000000       0.00000000          1
H         8.95578418       4.77088537       5.42310730         0.00000000       0.00000000       0.00000000          1
H         9.13073502       2.07209875       4.72294537         0.00000000       0.00000000       0.00000000          1
H         6.67604564       5.03629022       3.83042743         0.00000000       0.00000000       0.00000000          1
H         9.03839419       4.02874250       2.73113919         0.00000000       0.00000000       0.00000000          1
H         6.76838593       3.07964780       5.82222938         0.00000000       0.00000000       0.00000000          1
6
pbc=[F, F, F] list_num_par=6 energy=-1.26974174 iter=20000 frozen=false Lattice="15.00000000 0.00000000 0.00000000 0.00000000 15.00000000 0.00000000 0.00000000 0.00000000 15.00000000" energy_frozen_part=0.00000000 Properties=species:S:1:pos:R:3:velocities:R:3:Z:I:1
H         9.65096310       2.16238174       6.68483749         0.00000000       0.00000000       0.00000000          1
H         7.88321525       2.10870242       8.84735114         0.00000000       0.00000000       0.00000000          1
H        10.44847051       1.03489199       9.11322156         0.00000000       0.00000000       0.00000000          1
H        11.55075274       3.45940105       8.27002379         0.00000000       0.00000000       0.00000000          1
H         8.98550472       4.53321546       8.00416085         0.00000000       0.00000000       0.00000000          1
H         9.78301067       3.40571992      10.43254246         0.00000000       0.00000000       0.00000000          1
6
pbc=[F, F, F] list_num_par=6 energy=-1.26974174 iter=20000 frozen=false Lattice="15.00000000 0.00000000 0.00000000 0.00000000 15.00000000 0.00000000 0.00000000 0.00000000 15.00000000" energy_frozen_part=0.00000000 Properties=species:S:1:pos:R:3:velocities:R:3:Z:I:1
H         9.65096633       2.16242655       6.68479423         0.00000000       0.00000000       0.00000000          1
H         7.88317520       2.10867365       8.84727328         0.00000000       0.00000000       0.00000000          1
H        10.44845047       1.03493007       9.11317415         0.00000000       0.00000000       0.00000000          1
H        11.55069087       3.45948090       8.27002815         0.00000000       0.00000000       0.00000000          1
H         8.98540761       4.53322300       8.00412804         0.00000000       0.00000000       0.00000000          1
H         9.78290158       3.40573050      10.43250745         0.00000000       0.00000000       0.00000000          1
6
pbc=[F, F, F] list_num_par=6 energy=-1.26974174 iter=20000 frozen=false Lattice="15.00000000 0.00000000 0.00000000 0.00000000 15.00000000 0.00000000 0.00000000 0.00000000 15.00000000" energy_frozen_part=0.00000000 Properties=species:S:1:pos:R:3:velocities:R:3:Z:I:1
H         6.85099959       2.33750501       3.13024297         0.00000000       0.00000000       0.00000000          1
H         8.95577533       4.77087516       5.42309765         0.00000000       0.00000000       0.00000000          1