6
pbc=[F, F, F] list_num_par=6 frozen=false iter=9 energy=168.84589120 Lattice="15.00000000 0.00000000 0.00000000 0.00000000 15.00000000 0.00000000 0.00000000 0.00000000 15.00000000" energy_frozen_part=0.00000000 Properties=species:S:1:pos:R:3:velocities:R:3:Z:I:1
H        11.63121558      12.91570827       2.98031135         0.00000000       0.00000000       0.00000000          1
H         2.96580940       3.56774543      11.70792311         0.00000000       0.00000000       0.00000000          1
H        12.41105131       2.25264393       0.51512189         0.00000000       0.00000000       0.00000000          1
H         5.86466623      13.08911221      14.97058692         0.00000000       0.00000000       0.00000000          1
H         9.50047957      12.18143004       9.91451059         0.00000000       0.00000000       0.00000000          1
H        10.43763710      11.90048029       8.77156695         0.00000000       0.00000000       0.00000000          1
6
pbc=[F, F, F] list_num_par=6 frozen=false iter=19 energy=1.73029307 Lattice="15.00000000 0.00000000 0.00000000 0.00000000 15.00000000 0.00000000 0.00000000 0.00000000 15.00000000" energy_frozen_part=0.00000000 Properties=species:S:1:pos:R:3:velocities:R:3:Z:I:1
H         2.64010261      10.29515463       8.53958605         0.00000000       0.00000000       0.00000000          1
H         8.37595809       6.57046212       9.68799241         0.00000000       0.00000000       0.00000000          1
H         0.40665767      13.05451988       1.98750375         0.00000000       0.00000000       0.00000000          1
H         0.46838653      14.06775420       3.85567033         0.00000000       0.00000000       0.00000000          1
H         2.25608136       4.25095455       7.21306718         0.00000000       0.00000000       0.00000000          1
H        11.49079712       3.11036365       5.62254969         0.00000000       0.00000000       0.00000000          1
6
pbc=[F, F, F] list_num_par=6 frozen=false iter=29 energy=-0.00144681 Lattice="15.00000000 0.00000000 0.00000000 0.00000000 15.00000000 0.00000000 0.00000000 0.00000000 15.00000000" energy_frozen_part=0.00000000 Properties=species:S:1:pos:R:3:velocities:R:3:Z:I:1
H        10.20283493      14.37875183      12.74114003         0.00000000       0.00000000       0.00000000          1
H         0.00209611       2.65410503      14.31100488         0.00000000       0.00000000       0.00000000          1
H         5.89748770      11.36524847       8.49510852         0.00000000       0.00000000       0.00000000          1
H        11.62125386       8.73125429       4.00126532         0.00000000       0.00000000       0.00000000          1
H        13.58167266       1.64690352       8.23960090         0.00000000       0.00000000       0.00000000          1
H         3.63155770       1.53670045       1.96227682         0.00000000       0.00000000       0.00000000          1
6
pbc=[F, F, F] list_num_par=6 frozen=false iter=39 energy=-0.00409422 Lattice="15.00000000 0.00000000 0.00000000 0.00000000 15.00000000 0.00000000 0.00000000 0.00000000 15.00000000" energy_frozen_part=0.00000000 Properties=species:S:1:pos:R:3:velocities:R:3:Z:I:1
H         9.40032701       4.88501885       6.45001158         0.00000000       0.00000000       0.00000000          1
H         9.49769077      12.74773759       5.04136082         0.00000000       0.00000000       0.00000000          1
H         5.41707096       4.85933620      14.90477016         0.00000000       0.00000000       0.00000000          1
H         5.18515637       9.71391524       0.71437848         0.00000000       0.00000000       0.00000000          1
H         8.13191953       0.86266155       0.22112989         0.00000000       0.00000000       0.00000000          1
H         4.65640544      10.53477160       8.47767440         0.00000000       0.00000000       0.00000000          1
6
pbc=[F, F, F] list_num_par=6 frozen=false iter=49 energy=-0.00567353 Lattice="15.00000000 0.00000000 0.00000000 0.00000000 15.00000000 0.00000000 0.00000000 0.00000000 15.00000000" energy_frozen_part=0.00000000 Properties=species:S:1:pos:R:3:velocities:R:3:Z:I:1
H        10.38963793       4.03074043      10.35694096         0.00000000       0.00000000       0.00000000          1
H         2.32909781       0.81496915       1.97030109         0.00000000       0.00000000       0.00000000          1
H         5.46701363      13.40616650       3.83569698         0.00000000       0.00000000       0.00000000          1
H         9.55991803       8.11240283       3.71970956         0.00000000       0.00000000       0.00000000          1
H        12.70827878      10.28117389      14.76682950         0.00000000       0.00000000       0.00000000          1
H         4.88239799       4.50675646       6.01057652         0.00000000       0.00000000       0.00000000          1
6
pbc=[F, F, F] list_num_par=6 frozen=false iter=59 energy=-0.01014045 Lattice="15.00000000 0.00000000 0.00000000 0.00000000 15.00000000 0.00000000 0.00000000 0.00000000 15.00000000" energy_frozen_part=0.00000000 Properties=species:S:1:pos:R:3:velocities:R:3:Z:I:1
H         6.66284918      14.76670326       3.39144769         0.00000000       0.00000000       0.00000000          1
H        12.23022683       1.27444943       2.61894573         0.00000000       0.00000000       0.00000000          1
H         7.62201942       6.14628000       5.61636663         0.00000000       0.00000000       0.00000000          1
H         0.21553711       2.67240268      10.46567996         0.00000000       0.00000000       0.00000000          1
H         2.96786827       6.95848502       5.66198979         0.00000000       0.00000000       0.00000000          1
H        14.72199096      13.05011115       5.20538498         0.00000000       0.00000000       0.00000000          1
6
pbc=[F, F, F] list_num_par=6 frozen=false iter=69 energy=-0.01303805 Lattice="15.00000000 0.00000000 0.00000000 0.00000000 15.00000000 0.00000000 0.00000000 0.00000000 15.00000000" energy_frozen_part=0.00000000 Properties=species:S:1:pos:R:3:velocities:R:3:Z:I:1
H        13.14546304       4.05368066      14.51132319         0.00000000       0.00000000       0.00000000          1
H         4.38373026       5.41345433       2.29478442         0.00000000       0.00000000       0.00000000          1
H         5.21079779       9.59799277       4.07788302         0.00000000       0.00000000       0.00000000          1
H         6.35185542       7.27746238       9.63556214         0.00000000       0.00000000       0.00000000          1
H        12.18456086       3.57582322       4.19049845         0.00000000       0.00000000       0.00000000          1
H         1.60709120       5.61449082      14.29436386         0.00000000       0.00000000       0.00000000          1
6
pbc=[F, F, F] list_num_par=6 frozen=false iter=79 energy=-0.01455091 Lattice="15.00000000 0.00000000 0.00000000 0.00000000 15.00000000 0.00000000 0.00000000 0.00000000 15.00000000" energy_frozen_part=0.00000000 Properties=species:S:1:pos:R:3:velocities:R:3:Z:I:1
H        12.03701365      10.46413067      12.26934522         0.00000000       0.00000000       0.00000000          1
H         6.08615328       6.33084017      14.28047146         0.00000000       0.00000000       0.00000000          1
H        11.21412377       8.60368764       5.96047011         0.00000000       0.00000000       0.00000000          1
H         9.68603289      14.34446332       2.27837741         0.00000000       0.00000000       0.00000000          1
H        13.84605782      12.93589489       1.29908527         0.00000000       0.00000000       0.00000000          1
H        13.53406860       1.72459342      14.56827333         0.00000000       0.00000000       0.00000000          1
6
pbc=[F, F, F] list_num_par=6 frozen=false iter=89 energy=-0.01933418 Lattice="15.00000000 0.00000000 0.00000000 0.00000000 15.00000000 0.00000000 0.00000000 0.00000000 15.00000000" energy_frozen_part=0.00000000 Properties=species:S:1:pos:R:3:velocities:R:3:Z:I:1
H         5.82570910       4.73069028       1.51322264         0.00000000       0.00000000       0.00000000          1
H        11.63567871       2.81654173       2.93495122         0.00000000       0.00000000       0.00000000          1
H         0.90460226       4.82461624       0.33988328         0.00000000       0.00000000       0.00000000          1
H         7.42934441       1.25453456      10.48269069         0.00000000       0.00000000       0.00000000          1
H        14.67893596      11.20235186      13.45507599         0.00000000       0.00000000       0.00000000          1
H        13.77198316       6.23059597       1.00475653         0.00000000       0.00000000       0.00000000          1
6
pbc=[F, F, F] list_num_par=6 frozen=false iter=99 energy=-0.02178950 Lattice="15.00000000 0.00000000 0.00000000 0.00000000 15.00000000 0.00000000 0.00000000 0.00000000 15.00000000" energy_frozen_part=0.00000000 Properties=species:S:1:pos:R:3:velocities:R:3:Z:I:1
H        13.02363891      13.04110132       4.33259690         0.00000000       0.00000000       0.00000000          1
H         1.91971223       6.81270591       3.05876444         0.00000000       0.00000000       0.00000000          1
H         6.03156125       3.23992484      12.35315615         0.00000000       0.00000000       0.00000000          1
H         2.38424571       1.37529478      11.99729156         0.00000000       0.00000000       0.00000000          1
H         8.34736748       5.31582605       6.52902969         0.00000000       0.00000000       0.00000000          1
H         1.36441797       8.94597206      11.81942339         0.00000000       0.00000000       0.00000000          1
6
pbc=[F, F, F] list_num_par=6 frozen=false iter=109 energy=-0.02632801 Lattice="15.00000000 0.00000000 0.00000000 0.00000000 15.00000000 0.00000000 0.00000000 0.00000000 15.00000000" energy_frozen_part=0.00000000 Properties=species:S:1:pos:R:3:velocities:R:3:Z:I:1
H        13.71858233       2.78842233       5.62033949         0.00000000       0.00000000       0.00000000          1
H         3.94120541      11.14331143       8.53543350         0.00000000       0.00000000       0.00000000          1
H         2.69281683       4.71213694       9.71251016         0.00000000       0.00000000       0.00000000          1
H         4.95124678       6.26110719       3.79898620         0.00000000       0.00000000       0.00000000          1
H         8.27401450       4.89639584       5.75272252         0.00000000       0.00000000       0.00000000          1
H        14.68634156       3.53921935      14.20041180         0.00000000       0.00000000       0.00000000          1
6
pbc=[F, F, F] list_num_par=6 frozen=false iter=119 energy=-0.02786577 Lattice="15.00000000 0.00000000 0.00000000 0.00000000 15.00000000 0.00000000 0.00000000 0.00000000 15.00000000" energy_frozen_part=0.00000000 Properties=species:S:1:pos:R:3:velocities:R:3:Z:I:1
H         8.17500894      13.94509703       1.08616853         0.00000000       0.00000000       0.00000000          1
H        11.24696744       5.16012380      10.10802921         0.00000000       0.00000000       0.00000000          1
H         8.04099092       6.09135632       6.63539030         0.00000000       0.00000000       0.00000000          1
H         9.20549319       2.35387230      14.73771989         0.00000000       0.00000000       0.00000000          1
H         6.61617474       5.66660706      13.32180516         0.00000000       0.00000000       0.00000000          1
H         8.40277312      12.07766995      10.52186114         0.00000000       0.00000000       0.00000000          1
6
pbc=[F, F, F] list_num_par=6 frozen=false iter=129 energy=-0.03067588 Lattice="15.00000000 0.00000000 0.00000000 0.00000000 15.00000000 0.00000000 0.00000000 0.00000000 15.00000000" energy_frozen_part=0.00000000 Properties=species:S:1:pos:R:3:velocities:R:3:Z:I:1
H        12.96565421       7.21964543       3.82423899         0.00000000       0.00000000       0.00000000          1
H         4.67741973      13.46286985      12.87604568         0.00000000       0.00000000       0.00000000          1
H         5.58030698       2.40438931       4.24437208         0.00000000       0.00000000       0.00000000          1
H        11.04180496      11.61812844      12.05407045         0.00000000       0.00000000       0.00000000          1
H         9.56751439       0.91337999       3.60991417         0.00000000       0.00000000       0.00000000          1
H        14.68331194       9.35229364      11.38608540         0.00000000       0.00000000       0.00000000          1
6
pbc=[F, F, F] list_num_par=6 frozen=false iter=139 energy=-0.03425282 Lattice="15.00000000 0.00000000 0.00000000 0.00000000 15.00000000 0.00000000 0.00000000 0.00000000 15.00000000" energy_frozen_part=0.00000000 Properties=species:S:1:pos:R:3:velocities:R:3:Z:I:1
H         3.49122952       0.44596661       7.16692876         0.00000000       0.00000000       0.00000000          1
H         4.47800090       9.85668893      11.04371704         0.00000000       0.00000000       0.00000000          1
H         1.51654902       9.07508290       0.70018725         0.00000000       0.00000000       0.00000000          1
H        13.25209847      13.91981560       7.18715816         0.00000000       0.00000000       0.00000000          1
H         2.22590347      10.42099113      14.15658511         0.00000000       0.00000000       0.00000000          1
H         2.92178031      12.86417157       3.28893303         0.00000000       0.00000000       0.00000000          1
6
pbc=[F, F, F] list_num_par=6 frozen=false iter=149 energy=-0.04153791 Lattice="15.00000000 0.00000000 0.00000000 0.00000000 15.00000000 0.00000000 0.00000000 0.00000000 15.00000000" energy_frozen_part=0.00000000 Properties=species:S:1:pos:R:3:velocities:R:3:Z:I:1
H         4.37308198      11.09506256       9.63083017         0.00000000       0.00000000       0.00000000          1
H         7.63326276       3.67594175      14.02424246         0.00000000       0.00000000       0.00000000          1
H         9.93186825      12.57867896      11.68470165         0.00000000       0.00000000       0.00000000          1
H         2.09755800       5.06052117       2.82133102         0.00000000       0.00000000       0.00000000          1
H         9.05113056       1.04411470       1.68974143         0.00000000       0.00000000       0.00000000          1
H        10.57814568      12.13276162       8.14266379         0.00000000       0.00000000       0.00000000          1
6
pbc=[F, F, F] list_num_par=6 frozen=false iter=159 energy=-0.04781802 Lattice="15.00000000 0.00000000 0.00000000 0.00000000 15.00000000 0.00000000 0.00000000 0.00000000 15.00000000" energy_frozen_part=0.00000000 Properties=species:S:1:pos:R:3:velocities:R:3:Z:I:1
H        11.74488657       0.48372777       9.43984428         0.00000000       0.00000000       0.00000000          1
H         1.10742835       5.94320499       5.04454242         0.00000000       0.00000000       0.00000000          1
H         3.83604305       4.45532102       8.46506262         0.00000000       0.00000000       0.00000000          1
H         1.05856483       9.91141908       6.26760371         0.00000000       0.00000000       0.00000000          1
H         7.90950132       3.30117245      10.13427786         0.00000000       0.00000000       0.00000000          1
H        14.35408427       8.08613475      10.84154476         0.00000000       0.00000000       0.00000000          1
6
pbc=[F, F, F] list_num_par=6 frozen=false iter=169 energy=-0.05241480 Lattice="15.00000000 0.00000000 0.00000000 0.00000000 15.00000000 0.00000000 0.00000000 0.00000000 15.00000000" energy_frozen_part=0.00000000 Properties=species:S:1:pos:R:3:velocities:R:3:Z:I:1
H        12.79955590       1.68371251       1.82911179         0.00000000       0.00000000       0.00000000          1
H        10.61041674       8.51594681       1.83507092         0.00000000       0.00000000       0.00000000          1
H         4.52437602       4.41962925       3.66478894         0.00000000       0.00000000       0.00000000          1
H         1.19405357       6.49068543      12.61874815         0.00000000       0.00000000       0.00000000          1
H         1.62007942       3.12831445       8.42690303         0.00000000       0.00000000       0.00000000          1
H         4.18163507       1.54341196       1.64967429         0.00000000       0.00000000       0.00000000          1
6
pbc=[F, F, F] list_num_par=6 frozen=false iter=179 energy=-0.05828897 Lattice="15.00000000 0.00000000 0.00000000 0.00000000 15.00000000 0.00000000 0.00000000 0.00000000 15.00000000" energy_frozen_part=0.00000000 Properties=species:S:1:pos:R:3:velocities:R:3:Z:I:1
H         6.54085924       6.85278158       7.75301347         0.00000000       0.00000000       0.00000000          1
H         4.61729278       0.40087387      12.21178025         0.00000000       0.00000000       0.00000000          1
H         9.27414432       4.83243310       0.63894614         0.00000000       0.00000000       0.00000000          1
H         1.75888519      11.05902475      10.09589940         0.00000000       0.00000000       0.00000000          1
H         4.86775137      11.66514194       7.23047528         0.00000000       0.00000000       0.00000000          1
H        10.05209856       7.82959585       8.33314017         0.00000000       0.00000000       0.00000000          1
6
pbc=[F, F, F] list_num_par=6 frozen=false iter=189 energy=-0.06413195 Lattice="15.00000000 0.00000000 0.00000000 0.00000000 15.00000000 0.00000000 0.00000000 0.00000000 15.00000000" energy_frozen_part=0.00000000 Properties=species:S:1:pos:R:3:velocities:R:3:Z:I:1
H         9.81916565       7.15930204       6.76167709         0.00000000       0.00000000       0.00000000          1
H        10.75517063       4.40519925      10.39877399         0.00000000       0.00000000       0.00000000          1
H         5.26737204       0.99831128       7.25594561         0.00000000       0.00000000       0.00000000          1
H         4.28986512       4.00834612       5.88423201         0.00000000       0.00000000       0.00000000          1
H        12.85352121       0.81490111       3.14375075         0.00000000       0.00000000       0.00000000          1
H        12.03515151      10.75389055      11.79939916         0.00000000       0.00000000       0.00000000          1
6
pbc=[F, F, F] list_num_par=6 frozen=false iter=199 energy=-0.06679160 Lattice="15.00000000 0.00000000 0.00000000 0.00000000 15.00000000 0.00000000 0.00000000 0.00000000 15.00000000" energy_frozen_part=0.00000000 Properties=species:S:1:pos:R:3:velocities:R:3:Z:I:1
H        12.46994391      10.23552214      14.81946265         0.00000000       0.00000000       0.00000000          1
H         0.36438965       6.67335437       6.04615654         0.00000000       0.00000000       0.00000000          1
H        13.34882749       7.78509167       4.05044040         0.00000000       0.00000000       0.00000000          1
H         8.55610179       3.64693454       8.99433196         0.00000000       0.00000000       0.00000000          1
H        10.75502346       1.38105059       8.23280777         0.00000000       0.00000000       0.00000000          1
H        13.17936009       0.25238382       0.43116835         0.00000000       0.00000000       0.00000000          1
6
pbc=[F, F, F] list_num_par=6 frozen=false iter=209 energy=-0.07432267 Lattice="15.00000000 0.00000000 0.00000000 0.00000000 15.00000000 0.00000000 0.00000000 0.00000000 15.00000000" energy_frozen_part=0.00000000 Properties=species:S:1:pos:R:3:velocities:R:3:Z:I:1
H         2.56177430       6.15958103       7.34874457         0.00000000       0.00000000       0.00000000          1
H        12.51061983      12.60294832       2.83173267         0.00000000       0.00000000       0.00000000          1
H         0.67672319       8.63273063      13.00299369         0.00000000       0.00000000       0.00000000          1
H         6.73461811       5.07435185       2.24305788         0.00000000       0.00000000       0.00000000          1
H         2.68778166       5.95332164      10.79898713         0.00000000       0.00000000       0.00000000          1
H         9.44855689       4.08788123      10.36430933         0.00000000       0.00000000       0.00000000          1
6
pbc=[F, F, F] list_num_par=6 frozen=false iter=219 energy=-0.07880318 Lattice="15.00000000 0.00000000 0.00000000 0.00000000 15.00000000 0.00000000 0.00000000 0.00000000 15.00000000" energy_frozen_part=0.00000000 Properties=species:S:1:pos:R:3:velocities:R:3:Z:I:1
H         7.73590591       7.70303874      13.46102852         0.00000000       0.00000000       0.00000000          1
H         8.81027327      11.03937803      13.69462820         0.00000000       0.00000000       0.00000000          1
H         6.91797131      13.96871289      11.99733691         0.00000000       0.00000000       0.00000000          1
H         7.74011639       6.24658168       4.03209572         0.00000000       0.00000000       0.00000000          1
H         3.18385800       9.61337371       5.63087768         0.00000000       0.00000000       0.00000000          1
H         5.48583551       1.63100400       6.10712791         0.00000000       0.00000000       0.00000000          1
6
pbc=[F, F, F] list_num_par=6 frozen=false iter=229 energy=-0.08355340 Lattice="15.00000000 0.00000000 0.00000000 0.00000000 15.00000000 0.00000000 0.00000000 0.00000000 15.00000000" energy_frozen_part=0.00000000 Properties=species:S:1:pos:R:3:velocities:R:3:Z:I:1
H         4.79102703       2.75184820       9.57614484         0.00000000       0.00000000       0.00000000          1
H         7.44504370       4.83040450       1.81601847         0.00000000       0.00000000       0.00000000          1
H        10.52158356       3.15649505       2.39451672         0.00000000       0.00000000       0.00000000          1
H         3.12346356       2.25964875      12.75466604         0.00000000       0.00000000       0.00000000          1
H        10.56304895      14.96171346       3.12359869         0.00000000       0.00000000       0.00000000          1
H        13.42228465       9.91182190       5.18876079         0.00000000       0.00000000       0.00000000          1
6
pbc=[F, F, F] list_num_par=6 frozen=false iter=239 energy=-0.09032632 Lattice="15.00000000 0.00000000 0.00000000 0.00000000 15.00000000 0.00000000 0.00000000 0.00000000 15.00000000" energy_frozen_part=0.00000000 Properties=species:S:1:pos:R:3:velocities:R:3:Z:I:1
H         3.31725057       1.27919191       3.66894429         0.00000000       0.00000000       0.00000000          1
H        12.97945973       3.11379442       5.34723624         0.00000000       0.00000000       0.00000000          1
H         0.77945267       6.65199510       0.46500555         0.00000000       0.00000000       0.00000000          1
H         8.74813323       2.26603887      11.08794450         0.00000000       0.00000000       0.00000000          1
H         9.27839029      11.94090565      13.17901237         0.00000000       0.00000000       0.00000000          1
H        12.84044007       3.86319613       2.44211752         0.00000000       0.00000000       0.00000000          1
6
pbc=[F, F, F] list_num_par=6 frozen=false iter=249 energy=-0.09269989 Lattice="15.00000000 0.00000000 0.00000000 0.00000000 15.00000000 0.00000000 0.00000000 0.00000000 15.00000000" energy_frozen_part=0.00000000 Properties=species:S:1:pos:R:3:velocities:R:3:Z:I:1
H        13.53483776       0.03461719       5.82037903         0.00000000       0.00000000       0.00000000          1
H         7.94186869       5.68679034      10.56360347         0.00000000       0.00000000       0.00000000          1
H        10.78128840       7.11875629      11.89607334         0.00000000       0.00000000       0.00000000          1
H        10.69018250       0.22138688       8.62802741         0.00000000       0.00000000       0.00000000          1
H         7.50324843       3.91082154       6.56062320         0.00000000       0.00000000       0.00000000          1
H         9.45729158       9.16031425       1.90978363         0.00000000       0.00000000       0.00000000          1
6
pbc=[F, F, F] list_num_par=6 frozen=false iter=259 energy=-0.09663524 Lattice="15.00000000 0.00000000 0.00000000 0.00000000 15.00000000 0.00000000 0.00000000 0.00000000 15.00000000" energy_frozen_part=0.00000000 Properties=species:S:1:pos:R:3:velocities:R:3:Z:I:1
H        10.56141730      10.67453627       2.49362724         0.00000000       0.00000000       0.00000000          1
H         1.92716848       8.24667966       4.00096237         0.00000000       0.00000000       0.00000000          1
H         0.84873064       4.37163950      13.05480315         0.00000000       0.00000000       0.00000000          1
H         2.21235311       1.63552372      12.97167825         0.00000000       0.00000000       0.00000000          1
H         2.78422693       5.72120126       8.23569414         0.00000000       0.00000000       0.00000000          1
H         4.05770294      11.33346494      11.71824736         0.00000000       0.00000000       0.00000000          1
6
pbc=[F, F, F] list_num_par=6 frozen=false iter=269 energy=-0.09852689 Lattice="15.00000000 0.00000000 0.00000000 0.00000000 15.00000000 0.00000000 0.00000000 0.00000000 15.00000000" energy_frozen_part=0.00000000 Properties=species:S:1:pos:R:3:velocities:R:3:Z:I:1
H        14.75102845       1.95629972       3.37141550         0.00000000       0.00000000       0.00000000          1
H         9.17987720       7.85397029       1.97282699         0.00000000       0.00000000       0.00000000          1
H         3.69056026       5.96822384       4.30282822         0.00000000       0.00000000       0.00000000          1
H         6.87986261       7.78630564       0.13045820         0.00000000       0.00000000       0.00000000          1
H         6.43670980       6.25750107      13.39728356         0.00000000       0.00000000       0.00000000          1
H         3.28107749      14.71030773       5.18348386         0.00000000       0.00000000       0.00000000          1
6
pbc=[F, F, F] list_num_par=6 frozen=false iter=279 energy=-0.10130440 Lattice="15.00000000 0.00000000 0.00000000 0.00000000 15.00000000 0.00000000 0.00000000 0.00000000 15.00000000" energy_frozen_part=0.00000000 Properties=species:S:1:pos:R:3:velocities:R:3:Z:I:1
H         4.33190291       7.08434292       8.25663932         0.00000000       0.00000000       0.00000000          1
H        14.98577963       5.82365976      10.63461145         0.00000000       0.00000000       0.00000000          1
H         9.72382913       0.75417216      11.29859162         0.00000000       0.00000000       0.00000000          1
H         7.92339092       3.10471392       3.16791984         0.00000000       0.00000000       0.00000000          1
H         8.11710712       7.35672470      10.54495471         0.00000000       0.00000000       0.00000000          1
H        14.53584447       7.92158433       9.06812264         0.00000000       0.00000000       0.00000000          1
6
pbc=[F, F, F] list_num_par=6 frozen=false iter=289 energy=-0.10256125 Lattice="15.00000000 0.00000000 0.00000000 0.00000000 15.00000000 0.00000000 0.00000000 0.00000000 15.00000000" energy_frozen_part=0.00000000 Properties=species:S:1:pos:R:3:velocities:R:3:Z:I:1
H        10.83490907      13.91773579       8.36858391         0.00000000       0.00000000       0.00000000          1
H         2.02124513      12.13121557      10.97603694         0.00000000       0.00000000       0.00000000          1
H        12.12216418       2.02770404      13.60721482         0.00000000       0.00000000       0.00000000          1
H         6.72969664      10.85905385      13.70237399         0.00000000       0.00000000       0.00000000          1
H         2.11639673       5.69623315      11.69385948         0.00000000       0.00000000       0.00000000          1
H        14.93424697       2.62264653      13.27912227         0.00000000       0.00000000       0.00000000          1
6
pbc=[F, F, F] list_num_par=6 frozen=false iter=299 energy=-0.10472410 Lattice="15.00000000 0.00000000 0.00000000 0.00000000 15.00000000 0.00000000 0.00000000 0.00000000 15.00000000" energy_frozen_part=0.00000000 Properties=species:S:1:pos:R:3:velocities:R:3:Z:I:1
H         8.51481689       7.12369745       9.17523961         0.00000000       0.00000000       0.00000000          1
H         3.07453473      10.43376553       2.28657798         0.00000000       0.00000000       0.00000000          1
H        13.60009168      11.16498477       3.20025874         0.00000000       0.00000000       0.00000000          1
H        11.31358028       8.28587589       8.74404865         0.00000000       0.00000000       0.00000000          1
H         1.49086765       6.63575395       3.97093821         0.00000000       0.00000000       0.00000000          1
H        14.91703521       5.78648919      10.90116937         0.00000000       0.00000000       0.00000000          1
6
pbc=[F, F, F] list_num_par=6 frozen=false iter=309 energy=-0.10938821 Lattice="15.00000000 0.00000000 0.00000000 0.00000000 15.00000000 0.00000000 0.00000000 0.00000000 15.00000000" energy_frozen_part=0.00000000 Properties=species:S:1:pos:R:3:velocities:R:3:Z:I:1
H         9.50628210       6.56482595       7.38842942         0.00000000       0.00000000       0.00000000          1
H         8.20566284      12.71811359       3.58616754         0.00000000       0.00000000       0.00000000          1