6
pbc=[F, F, F] list_num_par=6 frozen=false iter=20000 energy=-1.26974174 Lattice="15.00000000 0.00000000 0.00000000 0.00000000 15.00000000 0.00000000 0.00000000 0.00000000 15.00000000" energy_frozen_part=0.00000000 Properties=species:S:1:pos:R:3:velocities:R:3:Z:I:1
H         2.59850518       9.37536013       8.72755627         0.00000000       0.00000000       0.00000000          1
H         2.74848015       5.69664656       7.29467601         0.00000000       0.00000000       0.00000000          1
H         1.58218368       8.09480312       6.46226953         0.00000000       0.00000000       0.00000000          1
H         4.31835060       7.99059759       7.01615908         0.00000000       0.00000000       0.00000000          1
H         1.02863972       7.08140952       9.00607372         0.00000000       0.00000000       0.00000000          1
H         3.76480963       6.97720938       9.55996125         0.00000000       0.00000000       0.00000000          1
6
pbc=[F, F, F] list_num_par=6 frozen=false iter=20000 energy=-1.26974174 Lattice="15.00000000 0.00000000 0.00000000 0.00000000 15.00000000 0.00000000 0.00000000 0.00000000 15.00000000" energy_frozen_part=0.00000000 Properties=species:S:1:pos:R:3:velocities:R:3:Z:I:1
H         2.59447037       9.37737830       8.72409371         0.00000000       0.00000000       0.00000000          1
H         2.74724465       5.69737296       7.29483825         0.00000000       0.00000000       0.00000000          1
H         1.57887849       8.09375189       6.46021615         0.00000000       0.00000000       0.00000000          1
H         4.31521059       7.99231991       7.01383933         0.00000000       0.00000000       0.00000000          1
H         1.02650617       7.08242698       9.00509343         0.00000000       0.00000000       0.00000000          1
H         3.76283450       6.98100546       9.55872529         0.00000000       0.00000000       0.00000000          1
6
pbc=[F, F, F] list_num_par=6 frozen=false iter=20000 energy=-1.26974174 Lattice="15.00000000 0.00000000 0.00000000 0.00000000 15.00000000 0.00000000 0.00000000 0.00000000 15.00000000" energy_frozen_part=0.00000000 Properties=species:S:1:pos:R:3:velocities:R:3:Z:I:1
H         2.59849942       9.37534807       8.72749686         0.00000000       0.00000000       0.00000000          1
H         2.74846609       5.69662411       7.29466176         0.00000000       0.00000000       0.00000000          1
H         1.58216509       8.09476221       6.46222976         0.00000000       0.00000000       0.00000000          1
H         4.31833593       7.99056560       7.01611334         0.00000000       0.00000000       0.00000000          1
H         1.02862722       7.08139806       9.00604403         0.00000000       0.00000000       0.00000000          1
H         3.76479515       6.97720544       9.55992867         0.00000000       0.00000000       0.00000000          1
6
pbc=[F, F, F] list_num_par=6 frozen=false iter=20000 energy=-1.26974174 Lattice="15.00000000 0.00000000 0.00000000 0.00000000 15.00000000 0.00000000 0.00000000 0.00000000 15.00000000" energy_frozen_part=0.00000000 Properties=species:S:1:pos:R:3:velocities:R:3:Z:I:1
H         2.59449255       9.37737216       8.72408582         0.00000000       0.00000000       0.00000000          1
H         2.74718991       5.69734452       7.29486012         0.00000000       0.00000000       0.00000000          1
H         1.57886868       8.09373504       6.46022368         0.00000000       0.00000000       0.00000000          1
H         4.31519762       7.99226695       7.01382782         0.00000000       0.00000000       0.00000000          1
H         1.02648051       7.08245067       9.00511220         0.00000000       0.00000000       0.00000000          1
H         3.76281142       6.98098218       9.55872257         0.00000000       0.00000000       0.00000000          1
6
pbc=[F, F, F] list_num_par=6 frozen=false iter=20000 energy=-1.26974174 Lattice="15.00000000 0.00000000 0.00000000 0.00000000 15.00000000 0.00000000 0.00000000 0.00000000 15.00000000" energy_frozen_part=0.00000000 Properties=species:S:1:pos:R:3:velocities:R:3:Z:I:1
H         2.59004406       9.40808578       8.61677098         0.00000000       0.00000000       0.00000000          1
H         2.76087392       5.68589117       7.30349618         0.00000000       0.00000000       0.00000000          1
H         1.58224586       8.04957753       6.39346727         0.00000000       0.00000000       0.00000000          1
H         4.31854304       7.97812585       6.95190266         0.00000000       0.00000000       0.00000000          1
H         1.03237401       7.11584627       8.96836393         0.00000000       0.00000000       0.00000000          1
H         3.76867598       7.04440747       9.52679730         0.00000000       0.00000000       0.00000000          1
6
pbc=[F, F, F] list_num_par=6 frozen=false iter=20000 energy=-1.26974174 Lattice="15.00000000 0.00000000 0.00000000 0.00000000 15.00000000 0.00000000 0.00000000 0.00000000 15.00000000" energy_frozen_part=0.00000000 Properties=species:S:1:pos:R:3:velocities:R:3:Z:I:1
H         2.59854057       9.37533085       8.72758004         0.00000000       0.00000000       0.00000000          1
H         2.74844382       5.69666051       7.29457567         0.00000000       0.00000000       0.00000000          1
H         1.58214210       8.09485009       6.46227935         0.00000000       0.00000000       0.00000000          1
H         4.31832374       7.99060993       7.01609703         0.00000000       0.00000000       0.00000000          1
H         1.02865549       7.08137942       9.00606426         0.00000000       0.00000000       0.00000000          1
H         3.76483543       6.97714746       9.55987728         0.00000000       0.00000000       0.00000000          1
6
pbc=[F, F, F] list_num_par=6 frozen=false iter=20000 energy=-1.26974174 Lattice="15.00000000 0.00000000 0.00000000 0.00000000 15.00000000 0.00000000 0.00000000 0.00000000 15.00000000" energy_frozen_part=0.00000000 Properties=species:S:1:pos:R:3:velocities:R:3:Z:I:1
H         2.59001693       9.40808414       8.61668565         0.00000000       0.00000000       0.00000000          1
H         2.76086877       5.68583081       7.30358565         0.00000000       0.00000000       0.00000000          1
H         1.58220822       8.04944965       6.39345431         0.00000000       0.00000000       0.00000000          1
H         4.31850981       7.97805990       6.95186807         0.00000000       0.00000000       0.00000000          1
H         1.03237729       7.11585813       8.96840694         0.00000000       0.00000000       0.00000000          1
H         3.76868250       7.04446063       9.52681462         0.00000000       0.00000000       0.00000000          1
6
pbc=[F, F, F] list_num_par=6 frozen=false iter=20000 energy=-1.26974174 Lattice="15.00000000 0.00000000 0.00000000 0.00000000 15.00000000 0.00000000 0.00000000 0.00000000 15.00000000" energy_frozen_part=0.00000000 Properties=species:S:1:pos:R:3:velocities:R:3:Z:I:1
H         2.59447894       9.37737326       8.72408262         0.00000000       0.00000000       0.00000000          1
H         2.74723609       5.69735867       7.29484051         0.00000000       0.00000000       0.00000000          1
H         1.57888086       8.09373540       6.46020426         0.00000000       0.00000000       0.00000000          1
H         4.31521362       7.99231043       7.01383162         0.00000000       0.00000000       0.00000000          1
H         1.02650526       7.08243015       9.00508816         0.00000000       0.00000000       0.00000000          1
H         3.76283015       6.98099252       9.55871328         0.00000000       0.00000000       0.00000000          1
6
pbc=[F, F, F] list_num_par=6 frozen=false iter=20000 energy=-1.26974174 Lattice="15.00000000 0.00000000 0.00000000 0.00000000 15.00000000 0.00000000 0.00000000 0.00000000 15.00000000" energy_frozen_part=0.00000000 Properties=species:S:1:pos:R:3:velocities:R:3:Z:I:1
H         2.59001300       9.40809597       8.61668822         0.00000000       0.00000000       0.00000000          1
H         2.76088194       5.68585657       7.30357138         0.00000000       0.00000000       0.00000000          1
H         1.58221021       8.04947142       6.39345362         0.00000000       0.00000000       0.00000000          1
H         4.31851418       7.97809546       6.95185833         0.00000000       0.00000000       0.00000000          1
H         1.03238393       7.11585396       8.96840442         0.00000000       0.00000000       0.00000000          1
H         3.76868962       7.04448199       9.52679962         0.00000000       0.00000000       0.00000000          1
6
pbc=[F, F, F] list_num_par=6 frozen=false iter=20000 energy=-1.26974174 Lattice="15.00000000 0.00000000 0.00000000 0.00000000 15.00000000 0.00000000 0.00000000 0.00000000 15.00000000" energy_frozen_part=0.00000000 Properties=species:S:1:pos:R:3:velocities:R:3:Z:I:1
H         2.59431411       9.37748123       8.72399931         0.00000000       0.00000000       0.00000000          1
H         2.74724215       5.69744255       7.29485917         0.00000000       0.00000000       0.00000000          1
H         1.57885180       8.09376541       6.46011562         0.00000000       0.00000000       0.00000000          1
H         4.31515848       7.99241938       7.01385963         0.00000000       0.00000000       0.00000000          1
H         1.02638633       7.08250220       9.00499394         0.00000000       0.00000000       0.00000000          1
H         3.76269780       6.98115865       9.55874396         0.00000000       0.00000000       0.00000000          1
6
pbc=[F, F, F] list_num_par=6 frozen=false iter=20000 energy=-1.26974174 Lattice="15.00000000 0.00000000 0.00000000 0.00000000 15.00000000 0.00000000 0.00000000 0.00000000 15.00000000" energy_frozen_part=0.00000000 Properties=species:S:1:pos:R:3:velocities:R:3:Z:I:1
H         2.59850339       9.37536936       8.72754073         0.00000000       0.00000000       0.00000000          1
H         2.74841956       5.69664477       7.29467309         0.00000000       0.00000000       0.00000000          1
H         1.58214174       8.09480485       6.46227145         0.00000000       0.00000000       0.00000000          1
H         4.31832206       7.99057711       7.01613876         0.00000000       0.00000000       0.00000000          1
H         1.02861365       7.08143071       9.00607992         0.00000000       0.00000000       0.00000000          1
H         3.76478605       6.97720700       9.55994961         0.00000000       0.00000000       0.00000000          1
6
pbc=[F, F, F] list_num_par=6 frozen=false iter=20000 energy=-1.26974174 Lattice="15.00000000 0.00000000 0.00000000 0.00000000 15.00000000 0.00000000 0.00000000 0.00000000 15.00000000" energy_frozen_part=0.00000000 Properties=species:S:1:pos:R:3:velocities:R:3:Z:I:1
H         2.59441530       9.37734101       8.72419386         0.00000000       0.00000000       0.00000000          1
H         2.74724878       5.69738144       7.29483648         0.00000000       0.00000000       0.00000000          1
H         1.57879839       8.09374461       6.46030485         0.00000000       0.00000000       0.00000000          1
H         4.31514454       7.99238229       7.01385846         0.00000000       0.00000000       0.00000000          1
H         1.02651619       7.08234449       9.00516391         0.00000000       0.00000000       0.00000000          1
H         3.76286243       6.98097476       9.55872946         0.00000000       0.00000000       0.00000000          1
6
pbc=[F, F, F] list_num_par=6 frozen=false iter=20000 energy=-1.26974174 Lattice="15.00000000 0.00000000 0.00000000 0.00000000 15.00000000 0.00000000 0.00000000 0.00000000 15.00000000" energy_frozen_part=0.00000000 Properties=species:S:1:pos:R:3:velocities:R:3:Z:I:1
H         2.59450897       9.37736305       8.72409241         0.00000000       0.00000000       0.00000000          1
H         2.74717071       5.69734506       7.29486478         0.00000000       0.00000000       0.00000000          1
H         1.57885402       8.09373936       6.46023760         0.00000000       0.00000000       0.00000000          1
H         4.31519397       7.99225226       7.01382620         0.00000000       0.00000000       0.00000000          1
H         1.02649098       7.08245695       9.00512804         0.00000000       0.00000000       0.00000000          1
H         3.76282084       6.98096843       9.55872530         0.00000000       0.00000000       0.00000000          1
6
pbc=[F, F, F] list_num_par=6 frozen=false iter=20000 energy=-1.26974174 Lattice="15.00000000 0.00000000 0.00000000 0.00000000 15.00000000 0.00000000 0.00000000 0.00000000 15.00000000" energy_frozen_part=0.00000000 Properties=species:S:1:pos:R:3:velocities:R:3:Z:I:1
H         2.59850130       9.37536610       8.72753048         0.00000000       0.00000000       0.00000000          1
H         2.74841122       5.69663613       7.29467560         0.00000000       0.00000000       0.00000000          1
H         1.58213757       8.09480428       6.46226604         0.00000000       0.00000000       0.00000000          1
H         4.31830680       7.99057436       7.01613396         0.00000000       0.00000000       0.00000000          1
H         1.02860824       7.08143395       9.00607378         0.00000000       0.00000000       0.00000000          1
H         3.76477976       6.97720337       9.55994390         0.00000000       0.00000000       0.00000000          1
6
pbc=[F, F, F] list_num_par=6 frozen=false iter=20000 energy=-1.26974174 Lattice="15.00000000 0.00000000 0.00000000 0.00000000 15.00000000 0.00000000 0.00000000 0.00000000 15.00000000" energy_frozen_part=0.00000000 Properties=species:S:1:pos:R:3:velocities:R:3:Z:I:1
H         2.59000073       9.40809685       8.61667151         0.00000000       0.00000000       0.00000000          1
H         2.76089673       5.68584694       7.30356859         0.00000000       0.00000000       0.00000000          1
H         1.58221461       8.04946285       6.39344369         0.00000000       0.00000000       0.00000000          1
H         4.31851569       7.97809320       6.95185827         0.00000000       0.00000000       0.00000000          1
H         1.03238146       7.11584713       8.96838905         0.00000000       0.00000000       0.00000000          1
H         3.76868278       7.04447911       9.52679603         0.00000000       0.00000000       0.00000000          1
6
pbc=[F, F, F] list_num_par=6 frozen=false iter=20000 energy=-1.26974174 Lattice="15.00000000 0.00000000 0.00000000 0.00000000 15.00000000 0.00000000 0.00000000 0.00000000 15.00000000" energy_frozen_part=0.00000000 Properties=species:S:1:pos:R:3:velocities:R:3:Z:I:1
H         2.59444153       9.37739915       8.72415132         0.00000000       0.00000000       0.00000000          1
H         2.74727128       5.69739346       7.29489256         0.00000000       0.00000000       0.00000000          1
H         1.57884919       8.09374049       6.46028086         0.00000000       0.00000000       0.00000000          1
H         4.31518237       7.99238200       7.01387162         0.00000000       0.00000000       0.00000000          1
H         1.02652519       7.08241973       9.00516208         0.00000000       0.00000000       0.00000000          1
H         3.76286631       6.98104656       9.55875353         0.00000000       0.00000000       0.00000000          1
6
pbc=[F, F, F] list_num_par=6 frozen=false iter=20000 energy=-1.26974174 Lattice="15.00000000 0.00000000 0.00000000 0.00000000 15.00000000 0.00000000 0.00000000 0.00000000 15.00000000" energy_frozen_part=0.00000000 Properties=species:S:1:pos:R:3:velocities:R:3:Z:I:1
H         2.59000947       9.40809544       8.61669907         0.00000000       0.00000000       0.00000000          1
H         2.76086878       5.68585065       7.30357262         0.00000000       0.00000000       0.00000000          1
H         1.58221160       8.04947626       6.39346000         0.00000000       0.00000000       0.00000000          1
H         4.31851263       7.97808346       6.95186911         0.00000000       0.00000000       0.00000000          1
H         1.03236402       7.11585646       8.96840345         0.00000000       0.00000000       0.00000000          1
H         3.76867188       7.04446494       9.52681092         0.00000000       0.00000000       0.00000000          1
6
pbc=[F, F, F] list_num_par=6 frozen=false iter=20000 energy=-1.26974174 Lattice="15.00000000 0.00000000 0.00000000 0.00000000 15.00000000 0.00000000 0.00000000 0.00000000 15.00000000" energy_frozen_part=0.00000000 Properties=species:S:1:pos:R:3:velocities:R:3:Z:I:1
H         2.59001000       9.40809501       8.61667369         0.00000000       0.00000000       0.00000000          1
H         2.76088383       5.68584907       7.30356706         0.00000000       0.00000000       0.00000000          1
H         1.58220879       8.04946586       6.39344040         0.00000000       0.00000000       0.00000000          1
H         4.31851505       7.97808973       6.95185184         0.00000000       0.00000000       0.00000000          1
H         1.03237817       7.11586343       8.96838716         0.00000000       0.00000000       0.00000000          1
H         3.76867865       7.04448004       9.52680310         0.00000000       0.00000000       0.00000000          1
6
pbc=[F, F, F] list_num_par=6 frozen=false iter=20000 energy=-1.26974174 Lattice="15.00000000 0.00000000 0.00000000 0.00000000 15.00000000 0.00000000 0.00000000 0.00000000 15.00000000" energy_frozen_part=0.00000000 Properties=species:S:1:pos:R:3:velocities:R:3:Z:I:1
H         2.59002781       9.40805852       8.61678606         0.00000000       0.00000000       0.00000000          1
H         2.76087388       5.68588766       7.30346412         0.00000000       0.00000000       0.00000000          1
H         1.58222676       8.04957373       6.39347204         0.00000000       0.00000000       0.00000000          1
H         4.31853148       7.97812924       6.95189019         0.00000000       0.00000000       0.00000000          1
H         1.03236995       7.11581942       8.96835379         0.00000000       0.00000000       0.00000000          1
H         3.76867655       7.04438214       9.52677948         0.00000000       0.00000000       0.00000000          1
6
pbc=[F, F, F] list_num_par=6 frozen=false iter=20000 energy=-1.26974174 Lattice="15.00000000 0.00000000 0.00000000 0.00000000 15.00000000 0.00000000 0.00000000 0.00000000 15.00000000" energy_frozen_part=0.00000000 Properties=species:S:1:pos:R:3:velocities:R:3:Z:I:1
H         2.59000572       9.40809857       8.61667455         0.00000000       0.00000000       0.00000000          1
H         2.76089298       5.68584630       7.30356404         0.00000000       0.00000000       0.00000000          1
H         1.58220737       8.04946101       6.39344363         0.00000000       0.00000000       0.00000000          1
H         4.31851370       7.97809218       6.95184612         0.00000000       0.00000000       0.00000000          1
H         1.03238078       7.11585360       8.96838350         0.00000000       0.00000000       0.00000000          1
H         3.76868287       7.04448300       9.52679794         0.00000000       0.00000000       0.00000000          1
6
pbc=[F, F, F] list_num_par=6 frozen=false iter=20000 energy=-1.26974174 Lattice="15.00000000 0.00000000 0.00000000 0.00000000 15.00000000 0.00000000 0.00000000 0.00000000 15.00000000" energy_frozen_part=0.00000000 Properties=species:S:1:pos:R:3:velocities:R:3:Z:I:1
H         2.59445884       9.37736141       8.72420153         0.00000000       0.00000000       0.00000000          1
H         2.74725783       5.69739247       7.29485916         0.00000000       0.00000000       0.00000000          1
H         1.57883580       8.09376731       6.46031796         0.00000000       0.00000000       0.00000000          1
H         4.31517251       7.99237741       7.01387472         0.00000000       0.00000000       0.00000000          1
H         1.02653143       7.08237853       9.00518190         0.00000000       0.00000000       0.00000000          1
H         3.76287624       6.98099154       9.55874547         0.00000000       0.00000000       0.00000000          1
6
pbc=[F, F, F] list_num_par=6 frozen=false iter=20000 energy=-1.26974174 Lattice="15.00000000 0.00000000 0.00000000 0.00000000 15.00000000 0.00000000 0.00000000 0.00000000 15.00000000" energy_frozen_part=0.00000000 Properties=species:S:1:pos:R:3:velocities:R:3:Z:I:1
H         2.59855301       9.37543208       8.72747047         0.00000000       0.00000000       0.00000000          1
H         2.74821488       5.69664781       7.29474818         0.00000000       0.00000000       0.00000000          1
H         1.58221057       8.09488779       6.46218736         0.00000000       0.00000000       0.00000000          1
H         4.31834403       7.99042811       7.01622848         0.00000000       0.00000000       0.00000000          1
H         1.02842148       7.08165118       9.00599343         0.00000000       0.00000000       0.00000000          1
H         3.76455596       6.97719773       9.56003515         0.00000000       0.00000000       0.00000000          1
6
pbc=[F, F, F] list_num_par=6 frozen=false iter=20000 energy=-1.26974174 Lattice="15.00000000 0.00000000 0.00000000 0.00000000 15.00000000 0.00000000 0.00000000 0.00000000 15.00000000" energy_frozen_part=0.00000000 Properties=species:S:1:pos:R:3:velocities:R:3:Z:I:1
H         2.59853091       9.37531365       8.72755304         0.00000000       0.00000000       0.00000000          1
H         2.74843510       5.69661004       7.29465850         0.00000000       0.00000000       0.00000000          1
H         1.58217631       8.09478203       6.46226518         0.00000000       0.00000000       0.00000000          1
H         4.31834467       7.99052787       7.01614282         0.00000000       0.00000000       0.00000000          1
H         1.02862259       7.08139025       9.00606147         0.00000000       0.00000000       0.00000000          1
H         3.76479546       6.97714361       9.55994696         0.00000000       0.00000000       0.00000000          1
6
pbc=[F, F, F] list_num_par=6 frozen=false iter=20000 energy=-1.26974174 Lattice="15.00000000 0.00000000 0.00000000 0.00000000 15.00000000 0.00000000 0.00000000 0.00000000 15.00000000" energy_frozen_part=0.00000000 Properties=species:S:1:pos:R:3:velocities:R:3:Z:I:1
H         2.59000841       9.40809933       8.61668117         0.00000000       0.00000000       0.00000000          1
H         2.76088839       5.68584821       7.30359147         0.00000000       0.00000000       0.00000000          1
H         1.58219928       8.04945598       6.39346309         0.00000000       0.00000000       0.00000000          1
H         4.31851720       7.97809293       6.95185508         0.00000000       0.00000000       0.00000000          1
H         1.03238231       7.11585815       8.96841289         0.00000000       0.00000000       0.00000000          1
H         3.76869053       7.04449037       9.52680695         0.00000000       0.00000000       0.00000000          1
6
pbc=[F, F, F] list_num_par=6 frozen=false iter=20000 energy=-1.26974174 Lattice="15.00000000 0.00000000 0.00000000 0.00000000 15.00000000 0.00000000 0.00000000 0.00000000 15.00000000" energy_frozen_part=0.00000000 Properties=species:S:1:pos:R:3:velocities:R:3:Z:I:1
H         2.59442063       9.37740548       8.72410153         0.00000000       0.00000000       0.00000000          1
H         2.74726338       5.69735964       7.29493057         0.00000000       0.00000000       0.00000000          1
H         1.57886928       8.09370513       6.46023805         0.00000000       0.00000000       0.00000000          1
H         4.31519435       7.99233112       7.01389031         0.00000000       0.00000000       0.00000000          1
H         1.02648850       7.08243606       9.00513338         0.00000000       0.00000000       0.00000000          1
H         3.76281236       6.98106011       9.55878667         0.00000000       0.00000000       0.00000000          1
6
pbc=[F, F, F] list_num_par=6 frozen=false iter=20000 energy=-1.26974174 Lattice="15.00000000 0.00000000 0.00000000 0.00000000 15.00000000 0.00000000 0.00000000 0.00000000 15.00000000" energy_frozen_part=0.00000000 Properties=species:S:1:pos:R:3:velocities:R:3:Z:I:1
H         2.59852096       9.37531985       8.72756048         0.00000000       0.00000000       0.00000000          1
H         2.74845999       5.69661258       7.29467553         0.00000000       0.00000000       0.00000000          1
H         1.58217259       8.09477247       6.46227844         0.00000000       0.00000000       0.00000000          1
H         4.31834163       7.99054869       7.01616169         0.00000000       0.00000000       0.00000000          1
H         1.02862769       7.08137952       9.00607760         0.00000000       0.00000000       0.00000000          1
H         3.76479716       6.97716084       9.55996745         0.00000000       0.00000000       0.00000000          1
6
pbc=[F, F, F] list_num_par=6 frozen=false iter=20000 energy=-1.26974174 Lattice="15.00000000 0.00000000 0.00000000 0.00000000 15.00000000 0.00000000 0.00000000 0.00000000 15.00000000" energy_frozen_part=0.00000000 Properties=species:S:1:pos:R:3:velocities:R:3:Z:I:1
H         2.59452472       9.37736488       8.72409626         0.00000000       0.00000000       0.00000000          1
H         2.74716259       5.69734949       7.29485760         0.00000000       0.00000000       0.00000000          1
H         1.57886608       8.09375895       6.46023201         0.00000000       0.00000000       0.00000000          1
H         4.31519855       7.99224963       7.01382408         0.00000000       0.00000000       0.00000000          1
H         1.02649721       7.08246817       9.00512769         0.00000000       0.00000000       0.00000000          1
H         3.76282769       6.98096418       9.55871750         0.00000000       0.00000000       0.00000000          1
6
pbc=[F, F, F] list_num_par=6 frozen=false iter=20000 energy=-1.26974174 Lattice="15.00000000 0.00000000 0.00000000 0.00000000 15.00000000 0.00000000 0.00000000 0.00000000 15.00000000" energy_frozen_part=0.00000000 Properties=species:S:1:pos:R:3:velocities:R:3:Z:I:1
H         2.59850088       9.37533707       8.72759702         0.00000000       0.00000000       0.00000000          1
H         2.74844292       5.69666843       7.29460104         0.00000000       0.00000000       0.00000000          1
H         1.58213374       8.09484597       6.46229288         0.00000000       0.00000000       0.00000000          1
H         4.31831371       7.99062667       7.01613725         0.00000000       0.00000000       0.00000000          1
H         1.02863631       7.08137601       9.00606599         0.00000000       0.00000000       0.00000000          1
H         3.76480747       6.97716216       9.55991591         0.00000000       0.00000000       0.00000000          1
6
pbc=[F, F, F] list_num_par=6 frozen=false iter=20000 energy=-1.26974174 Lattice="15.00000000 0.00000000 0.00000000 0.00000000 15.00000000 0.00000000 0.00000000 0.00000000 15.00000000" energy_frozen_part=0.00000000 Properties=species:S:1:pos:R:3:velocities:R:3:Z:I:1
H         2.59001226       9.40809076       8.61667322         0.00000000       0.00000000       0.00000000          1
H         2.76087970       5.68583967       7.30357581         0.00000000       0.00000000       0.00000000          1
H         1.58218660       8.04945198       6.39346451         0.00000000       0.00000000       0.00000000          1
H         4.31850376       7.97808291       6.95184496         0.00000000       0.00000000       0.00000000          1
H         1.03238586       7.11584428       8.96841626         0.00000000       0.00000000       0.00000000          1
H         3.76869843       7.04447921       9.52679916         0.00000000       0.00000000       0.00000000          1
6
pbc=[F, F, F] list_num_par=6 frozen=false iter=20000 energy=-1.26974174 Lattice="15.00000000 0.00000000 0.00000000 0.00000000 15.00000000 0.00000000 0.00000000 0.00000000 15.00000000" energy_frozen_part=0.00000000 Properties=species:S:1:pos:R:3:velocities:R:3:Z:I:1
H         2.59853706       9.37531284       8.72755145         0.00000000       0.00000000       0.00000000          1
H         2.74843877       5.69659937       7.29466152         0.00000000       0.00000000       0.00000000          1
H         1.58217610       8.09477939       6.46226301         0.00000000       0.00000000       0.00000000          1
H         4.31834581       7.99052446       7.01614991         0.00000000       0.00000000       0.00000000          1
H         1.02862181       7.08138799       9.00606241         0.00000000       0.00000000       0.00000000          1
H         3.76479827       6.97713357       9.55994781         0.00000000       0.00000000       0.00000000          1
6
pbc=[F, F, F] list_num_par=6 frozen=false iter=20000 energy=-1.26974174 Lattice="15.00000000 0.00000000 0.00000000 0.00000000 15.00000000 0.00000000 0.00000000 0.00000000 15.00000000" energy_frozen_part=0.00000000 Properties=species:S:1:pos:R:3:velocities:R:3:Z:I:1
H         2.59858145       9.37546138       8.72750146         0.00000000       0.00000000       0.00000000          1
H         2.74824851       5.69672615       7.29465968         0.00000000       0.00000000       0.00000000          1