6
pbc=[F, F, F] list_num_par=6 frozen=false iter=9 energy=691.27516431 Lattice="15.00000000 0.00000000 0.00000000 0.00000000 15.00000000 0.00000000 0.00000000 0.00000000 15.00000000" energy_frozen_part=0.00000000 Properties=species:S:1:pos:R:3:velocities:R:3:Z:I:1
H        13.69899914      14.09823046      10.63747446         0.00000000       0.00000000       0.00000000          1
H        12.03748971      12.28300886       7.05686196         0.00000000       0.00000000       0.00000000          1
H         6.32034235       8.61981092       4.17407143         0.00000000       0.00000000       0.00000000          1
H        14.60364982      14.94688230      10.12920144         0.00000000       0.00000000       0.00000000          1
H        10.51010685       9.67076294       0.62312830         0.00000000       0.00000000       0.00000000          1
H         9.54371219       8.56736484       6.85580960         0.00000000       0.00000000       0.00000000          1
6
pbc=[F, F, F] list_num_par=6 frozen=false iter=19 energy=6.17521920 Lattice="15.00000000 0.00000000 0.00000000 0.00000000 15.00000000 0.00000000 0.00000000 0.00000000 15.00000000" energy_frozen_part=0.00000000 Properties=species:S:1:pos:R:3:velocities:R:3:Z:I:1
H        10.30393991       6.89712738       2.38549104         0.00000000       0.00000000       0.00000000          1
H        10.02218287       0.83339634       2.27210041         0.00000000       0.00000000       0.00000000          1
H         3.11466477       6.52600997      14.04817062         0.00000000       0.00000000       0.00000000          1
H         8.89591246       5.61075500       2.78373377         0.00000000       0.00000000       0.00000000          1
H         0.09112708      14.86501961      14.02375813         0.00000000       0.00000000       0.00000000          1
H         8.52369548       9.91267783      11.49648253         0.00000000       0.00000000       0.00000000          1
6
pbc=[F, F, F] list_num_par=6 frozen=false iter=29 energy=-0.00136268 Lattice="15.00000000 0.00000000 0.00000000 0.00000000 15.00000000 0.00000000 0.00000000 0.00000000 15.00000000" energy_frozen_part=0.00000000 Properties=species:S:1:pos:R:3:velocities:R:3:Z:I:1
H         5.48631762       1.35628910      12.05264765         0.00000000       0.00000000       0.00000000          1
H         1.20160825       3.25305106       3.04858512         0.00000000       0.00000000       0.00000000          1
H         0.98510153      14.04407412      13.46905596         0.00000000       0.00000000       0.00000000          1
H         7.36007738       1.25189307       1.49746694         0.00000000       0.00000000       0.00000000          1
H        14.59075949       4.79660524       0.18985545         0.00000000       0.00000000       0.00000000          1
H         6.43970047      10.46964383       0.45789952         0.00000000       0.00000000       0.00000000          1
6
pbc=[F, F, F] list_num_par=6 frozen=false iter=39 energy=-0.00410879 Lattice="15.00000000 0.00000000 0.00000000 0.00000000 15.00000000 0.00000000 0.00000000 0.00000000 15.00000000" energy_frozen_part=0.00000000 Properties=species:S:1:pos:R:3:velocities:R:3:Z:I:1
H         1.59924234       5.84649718       4.17870851         0.00000000       0.00000000       0.00000000          1
H         1.38868595       6.60189370      14.65396902         0.00000000       0.00000000       0.00000000          1
H         9.33840373       6.70363113      13.83198535         0.00000000       0.00000000       0.00000000          1
H         6.17336717      13.89905338      14.80169137         0.00000000       0.00000000       0.00000000          1
H         0.87033913       2.49817497       8.82705397         0.00000000       0.00000000       0.00000000          1
H         0.40470800      13.77123624       3.34701438         0.00000000       0.00000000       0.00000000          1
6
pbc=[F, F, F] list_num_par=6 frozen=false iter=49 energy=-0.00726337 Lattice="15.00000000 0.00000000 0.00000000 0.00000000 15.00000000 0.00000000 0.00000000 0.00000000 15.00000000" energy_frozen_part=0.00000000 Properties=species:S:1:pos:R:3:velocities:R:3:Z:I:1
H         1.55393288      14.54687339      12.26137098         0.00000000       0.00000000       0.00000000          1
H         9.79679545       3.50862881       9.99357562         0.00000000       0.00000000       0.00000000          1
H        12.71624929      11.03770741       1.11734253         0.00000000       0.00000000       0.00000000          1
H        14.19889303       9.38553612       5.63146074         0.00000000       0.00000000       0.00000000          1
H         4.35772347       9.40947097       2.52414754         0.00000000       0.00000000       0.00000000          1
H         6.31455370       8.61186534      13.22376016         0.00000000       0.00000000       0.00000000          1
6
pbc=[F, F, F] list_num_par=6 frozen=false iter=59 energy=-0.01073748 Lattice="15.00000000 0.00000000 0.00000000 0.00000000 15.00000000 0.00000000 0.00000000 0.00000000 15.00000000" energy_frozen_part=0.00000000 Properties=species:S:1:pos:R:3:velocities:R:3:Z:I:1
H         6.93627203       0.56262469       5.02112546         0.00000000       0.00000000       0.00000000          1
H         0.43757990       0.85557368       1.10515444         0.00000000       0.00000000       0.00000000          1
H        10.61946204       5.71640737       9.35657341         0.00000000       0.00000000       0.00000000          1
H         5.38870639       5.51729843       7.41770601         0.00000000       0.00000000       0.00000000          1
H        11.53822800       1.47342748       1.71624363         0.00000000       0.00000000       0.00000000          1
H         3.05145700      10.80384382      10.27581929         0.00000000       0.00000000       0.00000000          1
6
pbc=[F, F, F] list_num_par=6 frozen=false iter=69 energy=-0.01124604 Lattice="15.00000000 0.00000000 0.00000000 0.00000000 15.00000000 0.00000000 0.00000000 0.00000000 15.00000000" energy_frozen_part=0.00000000 Properties=species:S:1:pos:R:3:velocities:R:3:Z:I:1
H        10.90123427       1.09768844      14.09365906         0.00000000       0.00000000       0.00000000          1
H         6.91834937       5.45108890       6.73493062         0.00000000       0.00000000       0.00000000          1
H        11.39346660      14.19205751       5.82690664         0.00000000       0.00000000       0.00000000          1
H         6.67705149       5.83210809       1.11092557         0.00000000       0.00000000       0.00000000          1
H         9.67411623      12.04646916      12.92933751         0.00000000       0.00000000       0.00000000          1
H        11.60776249       7.53154291      13.47866013         0.00000000       0.00000000       0.00000000          1
6
pbc=[F, F, F] list_num_par=6 frozen=false iter=79 energy=-0.01353555 Lattice="15.00000000 0.00000000 0.00000000 0.00000000 15.00000000 0.00000000 0.00000000 0.00000000 15.00000000" energy_frozen_part=0.00000000 Properties=species:S:1:pos:R:3:velocities:R:3:Z:I:1
H         8.29128933       8.25810613       8.34811220         0.00000000       0.00000000       0.00000000          1
H        13.98081828       8.63534612       1.53756577         0.00000000       0.00000000       0.00000000          1
H         9.52803459      12.73756667       1.74285424         0.00000000       0.00000000       0.00000000          1
H         2.68639789       7.04803176       9.28810474         0.00000000       0.00000000       0.00000000          1
H         9.53794519       2.87826543       0.23535934         0.00000000       0.00000000       0.00000000          1
H        13.70221433       0.91322938       1.48391154         0.00000000       0.00000000       0.00000000          1
6
pbc=[F, F, F] list_num_par=6 frozen=false iter=89 energy=-0.01760677 Lattice="15.00000000 0.00000000 0.00000000 0.00000000 15.00000000 0.00000000 0.00000000 0.00000000 15.00000000" energy_frozen_part=0.00000000 Properties=species:S:1:pos:R:3:velocities:R:3:Z:I:1
H         1.44304316       3.94754402       4.01107934         0.00000000       0.00000000       0.00000000          1
H         1.62220001       5.36846228      14.41114846         0.00000000       0.00000000       0.00000000          1
H         9.81830780       6.07912061      14.80038433         0.00000000       0.00000000       0.00000000          1
H         6.62770377      13.73568087      14.43641792         0.00000000       0.00000000       0.00000000          1
H         1.49429119       2.51720261       7.97998838         0.00000000       0.00000000       0.00000000          1
H         0.02170471      13.78502272       4.28624426         0.00000000       0.00000000       0.00000000          1
6
pbc=[F, F, F] list_num_par=6 frozen=false iter=99 energy=-0.01984797 Lattice="15.00000000 0.00000000 0.00000000 0.00000000 15.00000000 0.00000000 0.00000000 0.00000000 15.00000000" energy_frozen_part=0.00000000 Properties=species:S:1:pos:R:3:velocities:R:3:Z:I:1
H         6.49446851       7.37132902       5.53728506         0.00000000       0.00000000       0.00000000          1
H         1.41658913      10.27524121      14.14918617         0.00000000       0.00000000       0.00000000          1
H         8.51442687       6.50627530      12.32535887         0.00000000       0.00000000       0.00000000          1
H         2.35610101       9.34652797       3.80591351         0.00000000       0.00000000       0.00000000          1
H         8.24394131       5.15741072       0.32761336         0.00000000       0.00000000       0.00000000          1
H         4.88026890      13.33969493      13.76783067         0.00000000       0.00000000       0.00000000          1
6
pbc=[F, F, F] list_num_par=6 frozen=false iter=109 energy=-0.02214217 Lattice="15.00000000 0.00000000 0.00000000 0.00000000 15.00000000 0.00000000 0.00000000 0.00000000 15.00000000" energy_frozen_part=0.00000000 Properties=species:S:1:pos:R:3:velocities:R:3:Z:I:1
H         0.17524897       3.99854902      12.23052529         0.00000000       0.00000000       0.00000000          1
H         1.61755851      12.20757076       4.24053048         0.00000000       0.00000000       0.00000000          1
H         5.51019688       6.49301150       0.03538981         0.00000000       0.00000000       0.00000000          1
H        11.16916825      13.21038769      10.48104377         0.00000000       0.00000000       0.00000000          1
H        10.41685559       5.74401300      10.97313995         0.00000000       0.00000000       0.00000000          1
H         7.60567340       5.19373434      13.82527821         0.00000000       0.00000000       0.00000000          1
6
pbc=[F, F, F] list_num_par=6 frozen=false iter=119 energy=-0.02620237 Lattice="15.00000000 0.00000000 0.00000000 0.00000000 15.00000000 0.00000000 0.00000000 0.00000000 15.00000000" energy_frozen_part=0.00000000 Properties=species:S:1:pos:R:3:velocities:R:3:Z:I:1
H        12.03514932       3.01179668      12.99152070         0.00000000       0.00000000       0.00000000          1
H         3.10862014      12.48771322       2.62783020         0.00000000       0.00000000       0.00000000          1
H         4.68290807       4.38740563       0.97294358         0.00000000       0.00000000       0.00000000          1
H         1.48173225      10.69469318      13.19279084         0.00000000       0.00000000       0.00000000          1
H        10.20966062       0.78070308      10.37664221         0.00000000       0.00000000       0.00000000          1
H        14.84808547      10.76760059       5.35393172         0.00000000       0.00000000       0.00000000          1
6
pbc=[F, F, F] list_num_par=6 frozen=false iter=129 energy=-0.03196391 Lattice="15.00000000 0.00000000 0.00000000 0.00000000 15.00000000 0.00000000 0.00000000 0.00000000 15.00000000" energy_frozen_part=0.00000000 Properties=species:S:1:pos:R:3:velocities:R:3:Z:I:1
H        14.11848065       1.68770271       1.81705941         0.00000000       0.00000000       0.00000000          1
H         2.67151142       2.22471072       9.50432036         0.00000000       0.00000000       0.00000000          1
H        14.86019149       7.95651234       1.04980401         0.00000000       0.00000000       0.00000000          1
H         4.53929847       1.68472293       6.11491113         0.00000000       0.00000000       0.00000000          1
H         7.72734019       6.05659208      13.92804443         0.00000000       0.00000000       0.00000000          1
H         6.30615200       7.01790752       7.25968499         0.00000000       0.00000000       0.00000000          1
6
pbc=[F, F, F] list_num_par=6 frozen=false iter=139 energy=-0.03628472 Lattice="15.00000000 0.00000000 0.00000000 0.00000000 15.00000000 0.00000000 0.00000000 0.00000000 15.00000000" energy_frozen_part=0.00000000 Properties=species:S:1:pos:R:3:velocities:R:3:Z:I:1
H        13.75989533      12.85310308       4.47752647         0.00000000       0.00000000       0.00000000          1
H         3.77643664       0.73625806       2.55580033         0.00000000       0.00000000       0.00000000          1
H        12.66657510      11.23100906      14.15901178         0.00000000       0.00000000       0.00000000          1
H        14.84245191       8.46173883      10.99467073         0.00000000       0.00000000       0.00000000          1
H        12.50511629      10.39617215       3.29700093         0.00000000       0.00000000       0.00000000          1
H        11.85495635      10.77331458       0.97579245         0.00000000       0.00000000       0.00000000          1
6
pbc=[F, F, F] list_num_par=6 frozen=false iter=149 energy=-0.04170684 Lattice="15.00000000 0.00000000 0.00000000 0.00000000 15.00000000 0.00000000 0.00000000 0.00000000 15.00000000" energy_frozen_part=0.00000000 Properties=species:S:1:pos:R:3:velocities:R:3:Z:I:1
H         8.36279408       9.54182589       4.32003341         0.00000000       0.00000000       0.00000000          1
H         2.92117259      12.03643347      13.73974312         0.00000000       0.00000000       0.00000000          1
H         6.41985535       5.99572159       7.60797751         0.00000000       0.00000000       0.00000000          1
H         9.77237809       9.94914116       7.90994819         0.00000000       0.00000000       0.00000000          1
H         1.37453357       7.71776150       8.01344494         0.00000000       0.00000000       0.00000000          1
H        14.94786031      10.67519821       0.89122518         0.00000000       0.00000000       0.00000000          1
6
pbc=[F, F, F] list_num_par=6 frozen=false iter=159 energy=-0.04600254 Lattice="15.00000000 0.00000000 0.00000000 0.00000000 15.00000000 0.00000000 0.00000000 0.00000000 15.00000000" energy_frozen_part=0.00000000 Properties=species:S:1:pos:R:3:velocities:R:3:Z:I:1
H         0.42928918       8.02490214      14.28429443         0.00000000       0.00000000       0.00000000          1
H         5.47949776       1.15039583       0.72196657         0.00000000       0.00000000       0.00000000          1
H         7.07706638      10.71379536       3.12172396         0.00000000       0.00000000       0.00000000          1
H         6.48933851      14.10817169       8.46216514         0.00000000       0.00000000       0.00000000          1
H         6.59667970       2.27534174       4.12004333         0.00000000       0.00000000       0.00000000          1
H         2.45282329      14.63298746      10.24311014         0.00000000       0.00000000       0.00000000          1
6
pbc=[F, F, F] list_num_par=6 frozen=false iter=169 energy=-0.05012870 Lattice="15.00000000 0.00000000 0.00000000 0.00000000 15.00000000 0.00000000 0.00000000 0.00000000 15.00000000" energy_frozen_part=0.00000000 Properties=species:S:1:pos:R:3:velocities:R:3:Z:I:1
H        14.50073205       7.38293892       6.49165887         0.00000000       0.00000000       0.00000000          1
H        10.40862973       2.13300779       2.07966482         0.00000000       0.00000000       0.00000000          1
H         7.68703386      14.67751488       8.97403787         0.00000000       0.00000000       0.00000000          1
H        10.85049126      12.29437369       9.35999280         0.00000000       0.00000000       0.00000000          1
H         7.16666968       6.17398502       6.28862358         0.00000000       0.00000000       0.00000000          1
H         4.73119670       4.13018057       3.87243083         0.00000000       0.00000000       0.00000000          1
6
pbc=[F, F, F] list_num_par=6 frozen=false iter=179 energy=-0.05413503 Lattice="15.00000000 0.00000000 0.00000000 0.00000000 15.00000000 0.00000000 0.00000000 0.00000000 15.00000000" energy_frozen_part=0.00000000 Properties=species:S:1:pos:R:3:velocities:R:3:Z:I:1
H         3.94649255       9.14166044       9.66035665         0.00000000       0.00000000       0.00000000          1
H         6.23659892       2.06814647       8.81732366         0.00000000       0.00000000       0.00000000          1
H        13.38121450      10.60724401       6.51439394         0.00000000       0.00000000       0.00000000          1
H        10.51194662      12.80520409       1.06795078         0.00000000       0.00000000       0.00000000          1
H         8.36290022      10.14694968       1.24761197         0.00000000       0.00000000       0.00000000          1
H        11.31527126       3.22622959       0.98371166         0.00000000       0.00000000       0.00000000          1
6
pbc=[F, F, F] list_num_par=6 frozen=false iter=189 energy=-0.05909152 Lattice="15.00000000 0.00000000 0.00000000 0.00000000 15.00000000 0.00000000 0.00000000 0.00000000 15.00000000" energy_frozen_part=0.00000000 Properties=species:S:1:pos:R:3:velocities:R:3:Z:I:1
H         4.05528635      14.44345521       1.29574373         0.00000000       0.00000000       0.00000000          1
H        10.18047462      11.09198397       4.99271666         0.00000000       0.00000000       0.00000000          1
H         0.46892050       1.41706421      14.21693422         0.00000000       0.00000000       0.00000000          1
H         5.34658237       9.09851998       4.16715317         0.00000000       0.00000000       0.00000000          1
H         8.63589923       4.96512267      14.76057152         0.00000000       0.00000000       0.00000000          1
H         4.96913548       5.95459644       2.89773125         0.00000000       0.00000000       0.00000000          1
6
pbc=[F, F, F] list_num_par=6 frozen=false iter=199 energy=-0.06305397 Lattice="15.00000000 0.00000000 0.00000000 0.00000000 15.00000000 0.00000000 0.00000000 0.00000000 15.00000000" energy_frozen_part=0.00000000 Properties=species:S:1:pos:R:3:velocities:R:3:Z:I:1
H         1.61440077       7.70959624      11.40938317         0.00000000       0.00000000       0.00000000          1
H         9.87343270       3.18385962       1.46954249         0.00000000       0.00000000       0.00000000          1
H         2.21546169      12.40078643       6.25187559         0.00000000       0.00000000       0.00000000          1
H        13.50278150       8.90052672       4.36300725         0.00000000       0.00000000       0.00000000          1
H         8.88526736       5.38191486       5.44941460         0.00000000       0.00000000       0.00000000          1
H         1.24963230      11.05021014      12.23554958         0.00000000       0.00000000       0.00000000          1
6
pbc=[F, F, F] list_num_par=6 frozen=false iter=209 energy=-0.06980125 Lattice="15.00000000 0.00000000 0.00000000 0.00000000 15.00000000 0.00000000 0.00000000 0.00000000 15.00000000" energy_frozen_part=0.00000000 Properties=species:S:1:pos:R:3:velocities:R:3:Z:I:1
H         2.65329291       8.22780969      10.49144408         0.00000000       0.00000000       0.00000000          1
H         5.84055033       1.43707154       7.22517656         0.00000000       0.00000000       0.00000000          1
H        14.53509719       5.34850479      13.23330891         0.00000000       0.00000000       0.00000000          1
H         1.15129186       7.74043054       1.66257605         0.00000000       0.00000000       0.00000000          1
H         1.93679695      10.69960521       2.63112329         0.00000000       0.00000000       0.00000000          1
H        12.29836175      12.60614287       8.84823805         0.00000000       0.00000000       0.00000000          1
6
pbc=[F, F, F] list_num_par=6 frozen=false iter=219 energy=-0.07761125 Lattice="15.00000000 0.00000000 0.00000000 0.00000000 15.00000000 0.00000000 0.00000000 0.00000000 15.00000000" energy_frozen_part=0.00000000 Properties=species:S:1:pos:R:3:velocities:R:3:Z:I:1
H         6.07541484       0.08317183       3.43680359         0.00000000       0.00000000       0.00000000          1
H         4.29001211       3.32840772       3.01498219         0.00000000       0.00000000       0.00000000          1
H         3.17807732       1.18539666       6.26716406         0.00000000       0.00000000       0.00000000          1
H         9.60641755       1.19264840       9.82297276         0.00000000       0.00000000       0.00000000          1
H        12.33502679       1.80404466       4.18248490         0.00000000       0.00000000       0.00000000          1
H        10.00123895       7.20021987       6.31366298         0.00000000       0.00000000       0.00000000          1
6
pbc=[F, F, F] list_num_par=6 frozen=false iter=229 energy=-0.08326334 Lattice="15.00000000 0.00000000 0.00000000 0.00000000 15.00000000 0.00000000 0.00000000 0.00000000 15.00000000" energy_frozen_part=0.00000000 Properties=species:S:1:pos:R:3:velocities:R:3:Z:I:1
H         3.31249994       3.20313975      12.48059012         0.00000000       0.00000000       0.00000000          1
H         3.02353353       1.90979863       8.86466532         0.00000000       0.00000000       0.00000000          1
H        13.36697171      10.05526694       0.50768399         0.00000000       0.00000000       0.00000000          1
H         1.24486765       7.52523883      14.11680435         0.00000000       0.00000000       0.00000000          1
H        13.09853985       2.18834133       7.64047510         0.00000000       0.00000000       0.00000000          1
H         2.68456882       5.95019359       9.73518087         0.00000000       0.00000000       0.00000000          1
6
pbc=[F, F, F] list_num_par=6 frozen=false iter=239 energy=-0.08889983 Lattice="15.00000000 0.00000000 0.00000000 0.00000000 15.00000000 0.00000000 0.00000000 0.00000000 15.00000000" energy_frozen_part=0.00000000 Properties=species:S:1:pos:R:3:velocities:R:3:Z:I:1
H         9.26104341      12.57620169       8.91154529         0.00000000       0.00000000       0.00000000          1
H         6.83870255       8.71264166       2.49505704         0.00000000       0.00000000       0.00000000          1
H         3.56087352       6.71385905      14.70723771         0.00000000       0.00000000       0.00000000          1
H        13.63626401       6.87454239       7.90032419         0.00000000       0.00000000       0.00000000          1
H         8.57100812       8.19975586       5.08408639         0.00000000       0.00000000       0.00000000          1
H         5.29931440      13.02835321      11.42384599         0.00000000       0.00000000       0.00000000          1
6
pbc=[F, F, F] list_num_par=6 frozen=false iter=249 energy=-0.09480461 Lattice="15.00000000 0.00000000 0.00000000 0.00000000 15.00000000 0.00000000 0.00000000 0.00000000 15.00000000" energy_frozen_part=0.00000000 Properties=species:S:1:pos:R:3:velocities:R:3:Z:I:1
H         1.53228066       7.15372819      11.42869466         0.00000000       0.00000000       0.00000000          1
H         3.84593020       5.53188899       8.85917780         0.00000000       0.00000000       0.00000000          1
H        10.63609435       2.35694001       0.57618685         0.00000000       0.00000000       0.00000000          1
H        13.64152449       1.76414179       2.19954272         0.00000000       0.00000000       0.00000000          1
H         8.95413910       0.12984897       3.95983281         0.00000000       0.00000000       0.00000000          1
H        13.62662718       2.45883687      12.58836509         0.00000000       0.00000000       0.00000000          1
6
pbc=[F, F, F] list_num_par=6 frozen=false iter=259 energy=-0.09777483 Lattice="15.00000000 0.00000000 0.00000000 0.00000000 15.00000000 0.00000000 0.00000000 0.00000000 15.00000000" energy_frozen_part=0.00000000 Properties=species:S:1:pos:R:3:velocities:R:3:Z:I:1
H         6.31535080      11.38893925       6.18867929         0.00000000       0.00000000       0.00000000          1
H         0.30090621       2.46059505       4.31157794         0.00000000       0.00000000       0.00000000          1
H         6.93438867      12.69673803       8.43903960         0.00000000       0.00000000       0.00000000          1
H        13.14386418       3.49562756       6.85337809         0.00000000       0.00000000       0.00000000          1
H        14.10308557       9.55522447      13.88898487         0.00000000       0.00000000       0.00000000          1
H         1.54422989      12.29660660       7.87277019         0.00000000       0.00000000       0.00000000          1
6
pbc=[F, F, F] list_num_par=6 frozen=false iter=269 energy=-0.10020034 Lattice="15.00000000 0.00000000 0.00000000 0.00000000 15.00000000 0.00000000 0.00000000 0.00000000 15.00000000" energy_frozen_part=0.00000000 Properties=species:S:1:pos:R:3:velocities:R:3:Z:I:1
H         9.61553224       0.98958391      13.30292147         0.00000000       0.00000000       0.00000000          1
H         1.12636761       7.58150863       9.30494411         0.00000000       0.00000000       0.00000000          1
H         1.77106739      10.98996250       5.73533039         0.00000000       0.00000000       0.00000000          1
H        11.86369282       3.54702075       9.67946004         0.00000000       0.00000000       0.00000000          1
H        10.68764916       4.17431056       3.13587951         0.00000000       0.00000000       0.00000000          1
H        13.00482269       1.80862115      12.49993398         0.00000000       0.00000000       0.00000000          1
6
pbc=[F, F, F] list_num_par=6 frozen=false iter=279 energy=-0.10397244 Lattice="15.00000000 0.00000000 0.00000000 0.00000000 15.00000000 0.00000000 0.00000000 0.00000000 15.00000000" energy_frozen_part=0.00000000 Properties=species:S:1:pos:R:3:velocities:R:3:Z:I:1
H         6.44678358       7.77383011       4.80378700         0.00000000       0.00000000       0.00000000          1
H         8.45186300       7.29629873       2.15959246         0.00000000       0.00000000       0.00000000          1
H         9.86780565      10.18228514      12.00182524         0.00000000       0.00000000       0.00000000          1
H         0.49676461       4.45881599       4.30550395         0.00000000       0.00000000       0.00000000          1
H         7.74710442       9.00824293       8.38609877         0.00000000       0.00000000       0.00000000          1
H         8.50646262       2.63893429       4.40135575         0.00000000       0.00000000       0.00000000          1
6
pbc=[F, F, F] list_num_par=6 frozen=false iter=289 energy=-0.10659998 Lattice="15.00000000 0.00000000 0.00000000 0.00000000 15.00000000 0.00000000 0.00000000 0.00000000 15.00000000" energy_frozen_part=0.00000000 Properties=species:S:1:pos:R:3:velocities:R:3:Z:I:1
H         5.73091832       9.98638719      13.81400976         0.00000000       0.00000000       0.00000000          1
H         0.79347408       8.93249037      14.24160420         0.00000000       0.00000000       0.00000000          1
H         1.01329156       0.26723498       8.46481775         0.00000000       0.00000000       0.00000000          1
H        11.85328962       9.15502672       0.07666941         0.00000000       0.00000000       0.00000000          1
H        10.21023371       9.70731942       2.25151662         0.00000000       0.00000000       0.00000000          1
H         9.92661490       7.18318744       8.90022776         0.00000000       0.00000000       0.00000000          1
6
pbc=[F, F, F] list_num_par=6 frozen=false iter=299 energy=-0.10814391 Lattice="15.00000000 0.00000000 0.00000000 0.00000000 15.00000000 0.00000000 0.00000000 0.00000000 15.00000000" energy_frozen_part=0.00000000 Properties=species:S:1:pos:R:3:velocities:R:3:Z:I:1
H         0.93252813       8.79205669       8.25290607         0.00000000       0.00000000       0.00000000          1
H         4.05265270       7.91558849       0.92146644         0.00000000       0.00000000       0.00000000          1
H         9.96397086       3.78073603       7.21852389         0.00000000       0.00000000       0.00000000          1
H         5.34333663      10.01775976       0.01031407         0.00000000       0.00000000       0.00000000          1
H         3.55718877       8.65588967       3.26168882         0.00000000       0.00000000       0.00000000          1
H        11.76861321      13.53769764      12.51590906         0.00000000       0.00000000       0.00000000          1
6
pbc=[F, F, F] list_num_par=6 frozen=false iter=309 energy=-0.10940383 Lattice="15.00000000 0.00000000 0.00000000 0.00000000 15.00000000 0.00000000 0.00000000 0.00000000 15.00000000" energy_frozen_part=0.00000000 Properties=species:S:1:pos:R:3:velocities:R:3:Z:I:1
H         4.04235886       1.08380353       2.65535663         0.00000000       0.00000000       0.00000000          1
H        13.45673183       3.91324969      12.12231136         0.00000000       0.00000000       0.00000000          1