6
pbc=[F, F, F] list_num_par=6 frozen=false iter=20000 energy=-1.26974174 Lattice="15.00000000 0.00000000 0.00000000 0.00000000 15.00000000 0.00000000 0.00000000 0.00000000 15.00000000" energy_frozen_part=0.00000000 Properties=species:S:1:pos:R:3:velocities:R:3:Z:I:1
H         9.97393709       4.85112359      11.43472421         0.00000000       0.00000000       0.00000000          1
H         8.00604232       4.91632660      13.41649329         0.00000000       0.00000000       0.00000000          1
H        11.18151638       7.10512211      12.55969043         0.00000000       0.00000000       0.00000000          1
H         8.48170170       7.17681154      11.84543266         0.00000000       0.00000000       0.00000000          1
H         9.21361604       7.17031620      14.54146442         0.00000000       0.00000000       0.00000000          1
H        10.70585711       4.84463135      14.13074631         0.00000000       0.00000000       0.00000000          1
6
pbc=[F, F, F] list_num_par=6 frozen=false iter=20000 energy=-1.26974174 Lattice="15.00000000 0.00000000 0.00000000 0.00000000 15.00000000 0.00000000 0.00000000 0.00000000 15.00000000" energy_frozen_part=0.00000000 Properties=species:S:1:pos:R:3:velocities:R:3:Z:I:1
H         9.96475892       4.87108474      11.41760910         0.00000000       0.00000000       0.00000000          1
H         8.00248821       4.93141654      13.40510371         0.00000000       0.00000000       0.00000000          1
H        11.18517870       7.11214132      12.55449141         0.00000000       0.00000000       0.00000000          1
H         8.48379281       7.20040060      11.84807157         0.00000000       0.00000000       0.00000000          1
H         9.22290422       7.17247556      14.54198703         0.00000000       0.00000000       0.00000000          1
H        10.70386833       4.84315724      14.11152870         0.00000000       0.00000000       0.00000000          1
6
pbc=[F, F, F] list_num_par=6 frozen=false iter=20000 energy=-1.26974174 Lattice="15.00000000 0.00000000 0.00000000 0.00000000 15.00000000 0.00000000 0.00000000 0.00000000 15.00000000" energy_frozen_part=0.00000000 Properties=species:S:1:pos:R:3:velocities:R:3:Z:I:1
H         9.96471642       4.87108491      11.41760748         0.00000000       0.00000000       0.00000000          1
H         8.00250831       4.93152965      13.40515577         0.00000000       0.00000000       0.00000000          1
H        11.18525098       7.11212376      12.55441347         0.00000000       0.00000000       0.00000000          1
H         8.48384533       7.20046853      11.84806638         0.00000000       0.00000000       0.00000000          1
H         9.22304134       7.17257076      14.54196478         0.00000000       0.00000000       0.00000000          1
H        10.70390445       4.84318395      14.11150717         0.00000000       0.00000000       0.00000000          1
6
pbc=[F, F, F] list_num_par=6 frozen=false iter=20000 energy=-1.26974174 Lattice="15.00000000 0.00000000 0.00000000 0.00000000 15.00000000 0.00000000 0.00000000 0.00000000 15.00000000" energy_frozen_part=0.00000000 Properties=species:S:1:pos:R:3:velocities:R:3:Z:I:1
H         3.32184542      12.55136394       8.35939926         0.00000000       0.00000000       0.00000000          1
H         5.26415609      10.81142979       7.35723606         0.00000000       0.00000000       0.00000000          1
H         3.62504984      10.00661994       9.47145513         0.00000000       0.00000000       0.00000000          1
H         6.02933183      13.07115666       8.81065697         0.00000000       0.00000000       0.00000000          1
H         4.39021882      12.26635369      10.92486483         0.00000000       0.00000000       0.00000000          1
H         6.33253066      10.52641593       9.92271015         0.00000000       0.00000000       0.00000000          1
6
pbc=[F, F, F] list_num_par=6 frozen=false iter=20000 energy=-1.26974174 Lattice="15.00000000 0.00000000 0.00000000 0.00000000 15.00000000 0.00000000 0.00000000 0.00000000 15.00000000" energy_frozen_part=0.00000000 Properties=species:S:1:pos:R:3:velocities:R:3:Z:I:1
H         9.96516159       4.87083365      11.41776010         0.00000000       0.00000000       0.00000000          1
H         8.00293131       4.93173829      13.40527436         0.00000000       0.00000000       0.00000000          1
H        11.18593173       7.11186830      12.55432633         0.00000000       0.00000000       0.00000000          1
H         8.48455091       7.20043503      11.84793676         0.00000000       0.00000000       0.00000000          1
H         9.22370062       7.17276352      14.54185004         0.00000000       0.00000000       0.00000000          1
H        10.70431070       4.84316348      14.11167462         0.00000000       0.00000000       0.00000000          1
6
pbc=[F, F, F] list_num_par=6 frozen=false iter=20000 energy=-1.26974174 Lattice="15.00000000 0.00000000 0.00000000 0.00000000 15.00000000 0.00000000 0.00000000 0.00000000 15.00000000" energy_frozen_part=0.00000000 Properties=species:S:1:pos:R:3:velocities:R:3:Z:I:1
H         9.97398653       4.85096267      11.43479066         0.00000000       0.00000000       0.00000000          1
H         8.00600889       4.91609385      13.41648001         0.00000000       0.00000000       0.00000000          1
H        11.18134968       7.10508838      12.55972365         0.00000000       0.00000000       0.00000000          1
H         8.48156008       7.17656266      11.84536036         0.00000000       0.00000000       0.00000000          1
H         9.21336948       7.17022287      14.54141008         0.00000000       0.00000000       0.00000000          1
H        10.70579409       4.84462333      14.13085212         0.00000000       0.00000000       0.00000000          1
6
pbc=[F, F, F] list_num_par=6 frozen=false iter=20000 energy=-1.26974174 Lattice="15.00000000 0.00000000 0.00000000 0.00000000 15.00000000 0.00000000 0.00000000 0.00000000 15.00000000" energy_frozen_part=0.00000000 Properties=species:S:1:pos:R:3:velocities:R:3:Z:I:1
H         9.96519796       4.87091612      11.41774088         0.00000000       0.00000000       0.00000000          1
H         8.00268715       4.93131038      13.40500616         0.00000000       0.00000000       0.00000000          1
H        11.18555570       7.11191720      12.55480426         0.00000000       0.00000000       0.00000000          1
H         8.48426728       7.20028677      11.84805382         0.00000000       0.00000000       0.00000000          1
H         9.22305106       7.17230642      14.54206604         0.00000000       0.00000000       0.00000000          1
H        10.70398427       4.84293220      14.11175046         0.00000000       0.00000000       0.00000000          1
6
pbc=[F, F, F] list_num_par=6 frozen=false iter=20000 energy=-1.26974174 Lattice="15.00000000 0.00000000 0.00000000 0.00000000 15.00000000 0.00000000 0.00000000 0.00000000 15.00000000" energy_frozen_part=0.00000000 Properties=species:S:1:pos:R:3:velocities:R:3:Z:I:1
H         9.96520046       4.87091809      11.41772702         0.00000000       0.00000000       0.00000000          1
H         8.00269048       4.93131356      13.40498591         0.00000000       0.00000000       0.00000000          1
H        11.18556524       7.11191627      12.55479653         0.00000000       0.00000000       0.00000000          1
H         8.48427164       7.20029657      11.84804383         0.00000000       0.00000000       0.00000000          1
H         9.22305714       7.17230586      14.54205466         0.00000000       0.00000000       0.00000000          1
H        10.70398572       4.84293523      14.11173484         0.00000000       0.00000000       0.00000000          1
6
pbc=[F, F, F] list_num_par=6 frozen=false iter=20000 energy=-1.26974174 Lattice="15.00000000 0.00000000 0.00000000 0.00000000 15.00000000 0.00000000 0.00000000 0.00000000 15.00000000" energy_frozen_part=0.00000000 Properties=species:S:1:pos:R:3:velocities:R:3:Z:I:1
H         9.96471493       4.87092449      11.41760018         0.00000000       0.00000000       0.00000000          1
H         8.00255993       4.93152590      13.40519545         0.00000000       0.00000000       0.00000000          1
H        11.18526969       7.11205379      12.55419026         0.00000000       0.00000000       0.00000000          1
H         8.48385413       7.20034283      11.84790692         0.00000000       0.00000000       0.00000000          1
H         9.22311065       7.17266165      14.54179408         0.00000000       0.00000000       0.00000000          1
H        10.70397656       4.84324872      14.11148512         0.00000000       0.00000000       0.00000000          1
6
pbc=[F, F, F] list_num_par=6 frozen=false iter=20000 energy=-1.26974174 Lattice="15.00000000 0.00000000 0.00000000 0.00000000 15.00000000 0.00000000 0.00000000 0.00000000 15.00000000" energy_frozen_part=0.00000000 Properties=species:S:1:pos:R:3:velocities:R:3:Z:I:1
H         9.96469371       4.87091634      11.41758898         0.00000000       0.00000000       0.00000000          1
H         8.00255986       4.93152886      13.40521077         0.00000000       0.00000000       0.00000000          1
H        11.18526747       7.11204541      12.55418138         0.00000000       0.00000000       0.00000000          1
H         8.48384615       7.20033763      11.84792375         0.00000000       0.00000000       0.00000000          1
H         9.22312911       7.17265080      14.54180500         0.00000000       0.00000000       0.00000000          1
H        10.70398198       4.84323942      14.11147379         0.00000000       0.00000000       0.00000000          1
6
pbc=[F, F, F] list_num_par=6 frozen=false iter=20000 energy=-1.26974174 Lattice="15.00000000 0.00000000 0.00000000 0.00000000 15.00000000 0.00000000 0.00000000 0.00000000 15.00000000" energy_frozen_part=0.00000000 Properties=species:S:1:pos:R:3:velocities:R:3:Z:I:1
H         9.97399433       4.85096110      11.43477217         0.00000000       0.00000000       0.00000000          1
H         8.00600410       4.91605564      13.41645779         0.00000000       0.00000000       0.00000000          1
H        11.18132690       7.10509718      12.55972350         0.00000000       0.00000000       0.00000000          1
H         8.48153988       7.17652859      11.84534354         0.00000000       0.00000000       0.00000000          1
H         9.21333325       7.17019206      14.54140484         0.00000000       0.00000000       0.00000000          1
H        10.70578991       4.84461270      14.13083224         0.00000000       0.00000000       0.00000000          1
6
pbc=[F, F, F] list_num_par=6 frozen=false iter=20000 energy=-1.26974174 Lattice="15.00000000 0.00000000 0.00000000 0.00000000 15.00000000 0.00000000 0.00000000 0.00000000 15.00000000" energy_frozen_part=0.00000000 Properties=species:S:1:pos:R:3:velocities:R:3:Z:I:1
H         9.97400635       4.85091635      11.43478390         0.00000000       0.00000000       0.00000000          1
H         8.00601993       4.91614518      13.41646434         0.00000000       0.00000000       0.00000000          1
H        11.18143976       7.10502465      12.55967455         0.00000000       0.00000000       0.00000000          1
H         8.48165200       7.17656728      11.84530653         0.00000000       0.00000000       0.00000000          1
H         9.21345428       7.17024384      14.54135671         0.00000000       0.00000000       0.00000000          1
H        10.70580913       4.84459852      14.13083889         0.00000000       0.00000000       0.00000000          1
6
pbc=[F, F, F] list_num_par=6 frozen=false iter=20000 energy=-1.26974174 Lattice="15.00000000 0.00000000 0.00000000 0.00000000 15.00000000 0.00000000 0.00000000 0.00000000 15.00000000" energy_frozen_part=0.00000000 Properties=species:S:1:pos:R:3:velocities:R:3:Z:I:1
H         9.96517595       4.87077971      11.41773440         0.00000000       0.00000000       0.00000000          1
H         8.00299184       4.93166687      13.40530127         0.00000000       0.00000000       0.00000000          1
H        11.18594361       7.11183487      12.55424463         0.00000000       0.00000000       0.00000000          1
H         8.48454725       7.20036271      11.84791918         0.00000000       0.00000000       0.00000000          1
H         9.22375702       7.17272408      14.54181442         0.00000000       0.00000000       0.00000000          1
H        10.70439184       4.84314281      14.11162732         0.00000000       0.00000000       0.00000000          1
6
pbc=[F, F, F] list_num_par=6 frozen=false iter=20000 energy=-1.26974174 Lattice="15.00000000 0.00000000 0.00000000 0.00000000 15.00000000 0.00000000 0.00000000 0.00000000 15.00000000" energy_frozen_part=0.00000000 Properties=species:S:1:pos:R:3:velocities:R:3:Z:I:1
H         9.97394531       4.85112839      11.43471708         0.00000000       0.00000000       0.00000000          1
H         8.00604368       4.91630895      13.41648900         0.00000000       0.00000000       0.00000000          1
H        11.18150520       7.10511870      12.55970008         0.00000000       0.00000000       0.00000000          1
H         8.48169789       7.17681013      11.84544144         0.00000000       0.00000000       0.00000000          1
H         9.21360965       7.17030187      14.54146474         0.00000000       0.00000000       0.00000000          1
H        10.70584952       4.84461642      14.13074281         0.00000000       0.00000000       0.00000000          1
6
pbc=[F, F, F] list_num_par=6 frozen=false iter=20000 energy=-1.26974174 Lattice="15.00000000 0.00000000 0.00000000 0.00000000 15.00000000 0.00000000 0.00000000 0.00000000 15.00000000" energy_frozen_part=0.00000000 Properties=species:S:1:pos:R:3:velocities:R:3:Z:I:1
H         9.96519740       4.87092663      11.41771138         0.00000000       0.00000000       0.00000000          1
H         8.00269298       4.93130730      13.40497010         0.00000000       0.00000000       0.00000000          1
H        11.18557140       7.11191632      12.55480308         0.00000000       0.00000000       0.00000000          1
H         8.48428236       7.20030335      11.84804176         0.00000000       0.00000000       0.00000000          1
H         9.22305229       7.17229499      14.54205789         0.00000000       0.00000000       0.00000000          1
H        10.70397852       4.84292338      14.11172907         0.00000000       0.00000000       0.00000000          1
6
pbc=[F, F, F] list_num_par=6 frozen=false iter=20000 energy=-1.26974174 Lattice="15.00000000 0.00000000 0.00000000 0.00000000 15.00000000 0.00000000 0.00000000 0.00000000 15.00000000" energy_frozen_part=0.00000000 Properties=species:S:1:pos:R:3:velocities:R:3:Z:I:1
H         9.97388144       4.85109649      11.43468894         0.00000000       0.00000000       0.00000000          1
H         8.00599155       4.91632812      13.41646704         0.00000000       0.00000000       0.00000000          1
H        11.18149364       7.10507369      12.55964150         0.00000000       0.00000000       0.00000000          1
H         8.48167407       7.17680623      11.84540037         0.00000000       0.00000000       0.00000000          1
H         9.21360344       7.17030816      14.54142608         0.00000000       0.00000000       0.00000000          1
H        10.70580267       4.84459910      14.13070920         0.00000000       0.00000000       0.00000000          1
6
pbc=[F, F, F] list_num_par=6 frozen=false iter=20000 energy=-1.26974174 Lattice="15.00000000 0.00000000 0.00000000 0.00000000 15.00000000 0.00000000 0.00000000 0.00000000 15.00000000" energy_frozen_part=0.00000000 Properties=species:S:1:pos:R:3:velocities:R:3:Z:I:1
H         9.96522932       4.87096964      11.41772268         0.00000000       0.00000000       0.00000000          1
H         8.00270240       4.93129729      13.40496523         0.00000000       0.00000000       0.00000000          1
H        11.18556219       7.11195666      12.55483286         0.00000000       0.00000000       0.00000000          1
H         8.48426956       7.20031292      11.84806598         0.00000000       0.00000000       0.00000000          1
H         9.22304055       7.17228901      14.54207897         0.00000000       0.00000000       0.00000000          1
H        10.70398533       4.84293739      14.11174160         0.00000000       0.00000000       0.00000000          1
6
pbc=[F, F, F] list_num_par=6 frozen=false iter=20000 energy=-1.26974174 Lattice="15.00000000 0.00000000 0.00000000 0.00000000 15.00000000 0.00000000 0.00000000 0.00000000 15.00000000" energy_frozen_part=0.00000000 Properties=species:S:1:pos:R:3:velocities:R:3:Z:I:1
H         9.97393535       4.85112617      11.43471705         0.00000000       0.00000000       0.00000000          1
H         8.00603939       4.91631067      13.41649415         0.00000000       0.00000000       0.00000000          1
H        11.18151586       7.10512106      12.55969718         0.00000000       0.00000000       0.00000000          1
H         8.48170155       7.17681403      11.84544797         0.00000000       0.00000000       0.00000000          1
H         9.21361567       7.17030617      14.54146724         0.00000000       0.00000000       0.00000000          1
H        10.70585274       4.84462412      14.13074226         0.00000000       0.00000000       0.00000000          1
6
pbc=[F, F, F] list_num_par=6 frozen=false iter=20000 energy=-1.26974174 Lattice="15.00000000 0.00000000 0.00000000 0.00000000 15.00000000 0.00000000 0.00000000 0.00000000 15.00000000" energy_frozen_part=0.00000000 Properties=species:S:1:pos:R:3:velocities:R:3:Z:I:1
H         9.96519376       4.87077525      11.41773404         0.00000000       0.00000000       0.00000000          1
H         8.00299418       4.93166784      13.40528770         0.00000000       0.00000000       0.00000000          1
H        11.18595188       7.11184083      12.55425287         0.00000000       0.00000000       0.00000000          1
H         8.48455402       7.20035326      11.84790423         0.00000000       0.00000000       0.00000000          1
H         9.22375236       7.17272851      14.54180363         0.00000000       0.00000000       0.00000000          1
H        10.70439095       4.84315475      14.11163887         0.00000000       0.00000000       0.00000000          1
6
pbc=[F, F, F] list_num_par=6 frozen=false iter=20000 energy=-1.26974174 Lattice="15.00000000 0.00000000 0.00000000 0.00000000 15.00000000 0.00000000 0.00000000 0.00000000 15.00000000" energy_frozen_part=0.00000000 Properties=species:S:1:pos:R:3:velocities:R:3:Z:I:1
H         9.96475298       4.87107946      11.41762085         0.00000000       0.00000000       0.00000000          1
H         8.00252622       4.93148681      13.40515250         0.00000000       0.00000000       0.00000000          1
H        11.18524431       7.11212628      12.55446353         0.00000000       0.00000000       0.00000000          1
H         8.48385190       7.20044476      11.84809110         0.00000000       0.00000000       0.00000000          1
H         9.22302573       7.17252495      14.54200229         0.00000000       0.00000000       0.00000000          1
H        10.70392383       4.84316798      14.11152651         0.00000000       0.00000000       0.00000000          1
6
pbc=[F, F, F] list_num_par=6 frozen=false iter=20000 energy=-1.26974174 Lattice="15.00000000 0.00000000 0.00000000 0.00000000 15.00000000 0.00000000 0.00000000 0.00000000 15.00000000" energy_frozen_part=0.00000000 Properties=species:S:1:pos:R:3:velocities:R:3:Z:I:1
H         9.96502161       4.87066490      11.41776533         0.00000000       0.00000000       0.00000000          1
H         8.00267972       4.93110041      13.40519110         0.00000000       0.00000000       0.00000000          1
H        11.18524387       7.11194206      12.55442162         0.00000000       0.00000000       0.00000000          1
H         8.48387915       7.19993106      11.84789913         0.00000000       0.00000000       0.00000000          1
H         9.22290844       7.17239082      14.54184660         0.00000000       0.00000000       0.00000000          1
H        10.70404173       4.84311941      14.11172075         0.00000000       0.00000000       0.00000000          1
6
pbc=[F, F, F] list_num_par=6 frozen=false iter=20000 energy=-1.26974174 Lattice="15.00000000 0.00000000 0.00000000 0.00000000 15.00000000 0.00000000 0.00000000 0.00000000 15.00000000" energy_frozen_part=0.00000000 Properties=species:S:1:pos:R:3:velocities:R:3:Z:I:1
H         3.32183432      12.55135764       8.35942290         0.00000000       0.00000000       0.00000000          1
H         5.26414739      10.81142139       7.35725383         0.00000000       0.00000000       0.00000000          1
H         3.62505527      10.00661947       9.47146941         0.00000000       0.00000000       0.00000000          1
H         6.02932013      13.07115725       8.81065709         0.00000000       0.00000000       0.00000000          1
H         4.39022959      12.26635124      10.92488291         0.00000000       0.00000000       0.00000000          1
H         6.33253674      10.52641658       9.92271416         0.00000000       0.00000000       0.00000000          1
6
pbc=[F, F, F] list_num_par=6 frozen=false iter=20000 energy=-1.26974174 Lattice="15.00000000 0.00000000 0.00000000 0.00000000 15.00000000 0.00000000 0.00000000 0.00000000 15.00000000" energy_frozen_part=0.00000000 Properties=species:S:1:pos:R:3:velocities:R:3:Z:I:1
H         9.96519584       4.87091234      11.41773849         0.00000000       0.00000000       0.00000000          1
H         8.00269657       4.93130520      13.40500317         0.00000000       0.00000000       0.00000000          1
H        11.18555833       7.11191685      12.55479473         0.00000000       0.00000000       0.00000000          1
H         8.48426700       7.20028932      11.84804838         0.00000000       0.00000000       0.00000000          1
H         9.22306088       7.17231016      14.54206468         0.00000000       0.00000000       0.00000000          1
H        10.70398684       4.84293713      14.11175308         0.00000000       0.00000000       0.00000000          1
6
pbc=[F, F, F] list_num_par=6 frozen=false iter=20000 energy=-1.26974174 Lattice="15.00000000 0.00000000 0.00000000 0.00000000 15.00000000 0.00000000 0.00000000 0.00000000 15.00000000" energy_frozen_part=0.00000000 Properties=species:S:1:pos:R:3:velocities:R:3:Z:I:1
H         9.96475663       4.87089279      11.41760950         0.00000000       0.00000000       0.00000000          1
H         8.00256389       4.93150760      13.40517372         0.00000000       0.00000000       0.00000000          1
H        11.18529887       7.11202719      12.55421264         0.00000000       0.00000000       0.00000000          1
H         8.48389065       7.20031592      11.84789377         0.00000000       0.00000000       0.00000000          1
H         9.22311273       7.17263714      14.54178655         0.00000000       0.00000000       0.00000000          1
H        10.70397158       4.84322434      14.11150772         0.00000000       0.00000000       0.00000000          1
6
pbc=[F, F, F] list_num_par=6 frozen=false iter=20000 energy=-1.26974174 Lattice="15.00000000 0.00000000 0.00000000 0.00000000 15.00000000 0.00000000 0.00000000 0.00000000 15.00000000" energy_frozen_part=0.00000000 Properties=species:S:1:pos:R:3:velocities:R:3:Z:I:1
H         9.96470965       4.87091273      11.41759699         0.00000000       0.00000000       0.00000000          1
H         8.00256258       4.93152569      13.40520634         0.00000000       0.00000000       0.00000000          1
H        11.18526796       7.11205985      12.55417044         0.00000000       0.00000000       0.00000000          1
H         8.48384723       7.20033125      11.84790593         0.00000000       0.00000000       0.00000000          1
H         9.22313174       7.17266650      14.54178498         0.00000000       0.00000000       0.00000000          1
H        10.70398715       4.84325591      14.11147136         0.00000000       0.00000000       0.00000000          1
6
pbc=[F, F, F] list_num_par=6 frozen=false iter=20000 energy=-1.26974174 Lattice="15.00000000 0.00000000 0.00000000 0.00000000 15.00000000 0.00000000 0.00000000 0.00000000 15.00000000" energy_frozen_part=0.00000000 Properties=species:S:1:pos:R:3:velocities:R:3:Z:I:1
H         9.96502374       4.87066251      11.41775819         0.00000000       0.00000000       0.00000000          1
H         8.00267966       4.93111744      13.40518129         0.00000000       0.00000000       0.00000000          1
H        11.18525697       7.11193392      12.55441036         0.00000000       0.00000000       0.00000000          1
H         8.48389148       7.19994242      11.84788797         0.00000000       0.00000000       0.00000000          1
H         9.22291804       7.17239461      14.54183572         0.00000000       0.00000000       0.00000000          1
H        10.70404868       4.84311659      14.11170785         0.00000000       0.00000000       0.00000000          1
6
pbc=[F, F, F] list_num_par=6 frozen=false iter=20000 energy=-1.26974174 Lattice="15.00000000 0.00000000 0.00000000 0.00000000 15.00000000 0.00000000 0.00000000 0.00000000 15.00000000" energy_frozen_part=0.00000000 Properties=species:S:1:pos:R:3:velocities:R:3:Z:I:1
H         9.97401199       4.85096842      11.43481014         0.00000000       0.00000000       0.00000000          1
H         8.00601179       4.91610404      13.41648780         0.00000000       0.00000000       0.00000000          1
H        11.18135516       7.10510992      12.55974165         0.00000000       0.00000000       0.00000000          1
H         8.48157520       7.17656546      11.84535987         0.00000000       0.00000000       0.00000000          1
H         9.21335720       7.17023768      14.54141805         0.00000000       0.00000000       0.00000000          1
H        10.70580012       4.84465096      14.13086994         0.00000000       0.00000000       0.00000000          1
6
pbc=[F, F, F] list_num_par=6 frozen=false iter=20000 energy=-1.26974174 Lattice="15.00000000 0.00000000 0.00000000 0.00000000 15.00000000 0.00000000 0.00000000 0.00000000 15.00000000" energy_frozen_part=0.00000000 Properties=species:S:1:pos:R:3:velocities:R:3:Z:I:1
H         9.96472219       4.87107552      11.41760968         0.00000000       0.00000000       0.00000000          1
H         8.00250834       4.93152537      13.40516044         0.00000000       0.00000000       0.00000000          1
H        11.18524524       7.11211403      12.55441970         0.00000000       0.00000000       0.00000000          1
H         8.48384854       7.20045086      11.84806383         0.00000000       0.00000000       0.00000000          1
H         9.22302636       7.17257481      14.54196809         0.00000000       0.00000000       0.00000000          1
H        10.70390034       4.84318856      14.11152105         0.00000000       0.00000000       0.00000000          1
6
pbc=[F, F, F] list_num_par=6 frozen=false iter=20000 energy=-1.26974174 Lattice="15.00000000 0.00000000 0.00000000 0.00000000 15.00000000 0.00000000 0.00000000 0.00000000 15.00000000" energy_frozen_part=0.00000000 Properties=species:S:1:pos:R:3:velocities:R:3:Z:I:1
H         9.96515477       4.87083297      11.41777257         0.00000000       0.00000000       0.00000000          1
H         8.00294033       4.93174034      13.40529708         0.00000000       0.00000000       0.00000000          1
H        11.18592398       7.11188025      12.55431269         0.00000000       0.00000000       0.00000000          1
H         8.48454540       7.20043063      11.84793529         0.00000000       0.00000000       0.00000000          1
H         9.22370086       7.17278710      14.54184524         0.00000000       0.00000000       0.00000000          1
H        10.70431948       4.84319340      14.11168041         0.00000000       0.00000000       0.00000000          1
6
pbc=[F, F, F] list_num_par=6 frozen=false iter=20000 energy=-1.26974174 Lattice="15.00000000 0.00000000 0.00000000 0.00000000 15.00000000 0.00000000 0.00000000 0.00000000 15.00000000" energy_frozen_part=0.00000000 Properties=species:S:1:pos:R:3:velocities:R:3:Z:I:1
H         9.96503681       4.87066010      11.41775621         0.00000000       0.00000000       0.00000000          1
H         8.00267587       4.93111476      13.40516452         0.00000000       0.00000000       0.00000000          1
H        11.18526980       7.11193027      12.55443180         0.00000000       0.00000000       0.00000000          1
H         8.48391804       7.19994137      11.84787446         0.00000000       0.00000000       0.00000000          1
H         9.22291398       7.17238883      14.54183675         0.00000000       0.00000000       0.00000000          1
H        10.70403033       4.84310594      14.11171540         0.00000000       0.00000000       0.00000000          1
6
pbc=[F, F, F] list_num_par=6 frozen=false iter=20000 energy=-1.26974174 Lattice="15.00000000 0.00000000 0.00000000 0.00000000 15.00000000 0.00000000 0.00000000 0.00000000 15.00000000" energy_frozen_part=0.00000000 Properties=species:S:1:pos:R:3:velocities:R:3:Z:I:1
H         9.96475636       4.87110628      11.41757952         0.00000000       0.00000000       0.00000000          1
H         8.00252276       4.93147478      13.40511243         0.00000000       0.00000000       0.00000000          1