6
pbc=[F, F, F] list_num_par=6 frozen=false iter=9 energy=33.15426249 Lattice="15.00000000 0.00000000 0.00000000 0.00000000 15.00000000 0.00000000 0.00000000 0.00000000 15.00000000" energy_frozen_part=0.00000000 Properties=species:S:1:pos:R:3:velocities:R:3:Z:I:1
H         3.40390412      10.57037973       1.11248122         0.00000000       0.00000000       0.00000000          1
H         6.84026184       7.08502044       8.25508780         0.00000000       0.00000000       0.00000000          1
H         8.05815436       6.84839060       7.07206915         0.00000000       0.00000000       0.00000000          1
H        10.66224930      11.74291456       3.60861283         0.00000000       0.00000000       0.00000000          1
H        12.06980855      12.43246552       8.68846842         0.00000000       0.00000000       0.00000000          1
H         1.65491894       6.90445967      12.01680494         0.00000000       0.00000000       0.00000000          1
6
pbc=[F, F, F] list_num_par=6 frozen=false iter=19 energy=3.97982595 Lattice="15.00000000 0.00000000 0.00000000 0.00000000 15.00000000 0.00000000 0.00000000 0.00000000 15.00000000" energy_frozen_part=0.00000000 Properties=species:S:1:pos:R:3:velocities:R:3:Z:I:1
H        11.89593822       6.12266897       5.86648492         0.00000000       0.00000000       0.00000000          1
H         5.26295137       5.38768192       1.84411743         0.00000000       0.00000000       0.00000000          1
H         3.32411952       6.91920532       4.31221593         0.00000000       0.00000000       0.00000000          1
H         3.86685051       1.46044852       1.55691574         0.00000000       0.00000000       0.00000000          1
H         6.07789247       0.42299569      14.25123935         0.00000000       0.00000000       0.00000000          1
H         5.54524859       5.26923869       3.82528935         0.00000000       0.00000000       0.00000000          1
6
pbc=[F, F, F] list_num_par=6 frozen=false iter=29 energy=0.34572462 Lattice="15.00000000 0.00000000 0.00000000 0.00000000 15.00000000 0.00000000 0.00000000 0.00000000 15.00000000" energy_frozen_part=0.00000000 Properties=species:S:1:pos:R:3:velocities:R:3:Z:I:1
H        14.68147031      10.25757335       4.70625045         0.00000000       0.00000000       0.00000000          1
H         5.73619291       0.59625496       1.26235605         0.00000000       0.00000000       0.00000000          1
H         7.44440970       3.83848208       0.03196810         0.00000000       0.00000000       0.00000000          1
H         6.26870319      10.32050298       6.81090568         0.00000000       0.00000000       0.00000000          1
H         9.32447947      11.78239462       5.55037222         0.00000000       0.00000000       0.00000000          1
H         8.08939511       8.96248885       6.54506651         0.00000000       0.00000000       0.00000000          1
6
pbc=[F, F, F] list_num_par=6 frozen=false iter=39 energy=-0.00301071 Lattice="15.00000000 0.00000000 0.00000000 0.00000000 15.00000000 0.00000000 0.00000000 0.00000000 15.00000000" energy_frozen_part=0.00000000 Properties=species:S:1:pos:R:3:velocities:R:3:Z:I:1
H         1.20126615      10.44366660       6.63615972         0.00000000       0.00000000       0.00000000          1
H         1.23269849       1.22197554       3.58758429         0.00000000       0.00000000       0.00000000          1
H        11.85602417      14.20445601       9.50950891         0.00000000       0.00000000       0.00000000          1
H        12.87437100       8.06482368       5.85574590         0.00000000       0.00000000       0.00000000          1
H         5.92278645       4.31251557      13.06992566         0.00000000       0.00000000       0.00000000          1
H         6.97353377       7.94428227       3.73061729         0.00000000       0.00000000       0.00000000          1
6
pbc=[F, F, F] list_num_par=6 frozen=false iter=49 energy=-0.00661673 Lattice="15.00000000 0.00000000 0.00000000 0.00000000 15.00000000 0.00000000 0.00000000 0.00000000 15.00000000" energy_frozen_part=0.00000000 Properties=species:S:1:pos:R:3:velocities:R:3:Z:I:1
H        11.50125666       0.82302267       0.50467219         0.00000000       0.00000000       0.00000000          1
H         0.63505730       5.75498643       7.42691489         0.00000000       0.00000000       0.00000000          1
H        12.53574275       2.15577539      14.33273069         0.00000000       0.00000000       0.00000000          1
H        14.36791491       9.69368919       4.85043056         0.00000000       0.00000000       0.00000000          1
H         8.44325572       8.42113292       3.61842075         0.00000000       0.00000000       0.00000000          1
H         0.44384763       7.18064901      12.42384489         0.00000000       0.00000000       0.00000000          1
6
pbc=[F, F, F] list_num_par=6 frozen=false iter=59 energy=-0.01009820 Lattice="15.00000000 0.00000000 0.00000000 0.00000000 15.00000000 0.00000000 0.00000000 0.00000000 15.00000000" energy_frozen_part=0.00000000 Properties=species:S:1:pos:R:3:velocities:R:3:Z:I:1
H        10.00101482      14.53621684       0.85299072         0.00000000       0.00000000       0.00000000          1
H         0.17524887       5.59175269      13.54668141         0.00000000       0.00000000       0.00000000          1
H         9.57227228       6.70301412       0.49885768         0.00000000       0.00000000       0.00000000          1
H         4.47547246       3.07508783       1.30138677         0.00000000       0.00000000       0.00000000          1
H         1.80770814       1.09381859      13.99096124         0.00000000       0.00000000       0.00000000          1
H         5.22574522      13.38071637       6.03215916         0.00000000       0.00000000       0.00000000          1
6
pbc=[F, F, F] list_num_par=6 frozen=false iter=69 energy=-0.01210073 Lattice="15.00000000 0.00000000 0.00000000 0.00000000 15.00000000 0.00000000 0.00000000 0.00000000 15.00000000" energy_frozen_part=0.00000000 Properties=species:S:1:pos:R:3:velocities:R:3:Z:I:1
H         6.96290668       0.21935841      14.23088556         0.00000000       0.00000000       0.00000000          1
H        11.16806928       6.90933703       6.55084653         0.00000000       0.00000000       0.00000000          1
H        13.32139940       2.14582469      11.46835268         0.00000000       0.00000000       0.00000000          1
H        11.16916350      14.63449748       0.91450038         0.00000000       0.00000000       0.00000000          1
H         2.55994255       1.66082961      13.89662275         0.00000000       0.00000000       0.00000000          1
H         9.01014538       7.10836239      14.72526839         0.00000000       0.00000000       0.00000000          1
6
pbc=[F, F, F] list_num_par=6 frozen=false iter=79 energy=-0.01851516 Lattice="15.00000000 0.00000000 0.00000000 0.00000000 15.00000000 0.00000000 0.00000000 0.00000000 15.00000000" energy_frozen_part=0.00000000 Properties=species:S:1:pos:R:3:velocities:R:3:Z:I:1
H         9.84056450      12.67539544      12.95440402         0.00000000       0.00000000       0.00000000          1
H        13.69814400      14.49711935       9.19294617         0.00000000       0.00000000       0.00000000          1
H        12.32472712       0.03048549       3.53712403         0.00000000       0.00000000       0.00000000          1
H         2.85853098       5.70732320      14.35406835         0.00000000       0.00000000       0.00000000          1
H         6.67121203       8.55729378       3.51988660         0.00000000       0.00000000       0.00000000          1
H         7.58243861       9.76574162       7.57456115         0.00000000       0.00000000       0.00000000          1
6
pbc=[F, F, F] list_num_par=6 frozen=false iter=89 energy=-0.02349025 Lattice="15.00000000 0.00000000 0.00000000 0.00000000 15.00000000 0.00000000 0.00000000 0.00000000 15.00000000" energy_frozen_part=0.00000000 Properties=species:S:1:pos:R:3:velocities:R:3:Z:I:1
H         9.10893020       1.66680240       2.61923292         0.00000000       0.00000000       0.00000000          1
H        13.81839933      14.79379834       4.71113075         0.00000000       0.00000000       0.00000000          1
H         4.81534913      10.05841285       4.44099957         0.00000000       0.00000000       0.00000000          1
H         0.25712311       0.25305553      14.10754676         0.00000000       0.00000000       0.00000000          1
H        13.89766675       6.42657185       3.25545976         0.00000000       0.00000000       0.00000000          1
H        12.96450103       1.07748606       3.94484719         0.00000000       0.00000000       0.00000000          1
6
pbc=[F, F, F] list_num_par=6 frozen=false iter=99 energy=-0.02577956 Lattice="15.00000000 0.00000000 0.00000000 0.00000000 15.00000000 0.00000000 0.00000000 0.00000000 15.00000000" energy_frozen_part=0.00000000 Properties=species:S:1:pos:R:3:velocities:R:3:Z:I:1
H         3.49222138      14.33352356       9.08312454         0.00000000       0.00000000       0.00000000          1
H         8.28517940       2.79004532      10.82270849         0.00000000       0.00000000       0.00000000          1
H        14.57319512      10.32709600       3.18951641         0.00000000       0.00000000       0.00000000          1
H         6.56545203       0.69110055       2.72537289         0.00000000       0.00000000       0.00000000          1
H         2.59954764      12.30195173      12.36707861         0.00000000       0.00000000       0.00000000          1
H         5.31705193       6.35045195       5.61277671         0.00000000       0.00000000       0.00000000          1
6
pbc=[F, F, F] list_num_par=6 frozen=false iter=109 energy=-0.03068392 Lattice="15.00000000 0.00000000 0.00000000 0.00000000 15.00000000 0.00000000 0.00000000 0.00000000 15.00000000" energy_frozen_part=0.00000000 Properties=species:S:1:pos:R:3:velocities:R:3:Z:I:1
H         9.07611931       6.93281795       6.51282767         0.00000000       0.00000000       0.00000000          1
H         0.15546197       8.36686980       4.81654149         0.00000000       0.00000000       0.00000000          1
H         8.58180463       1.31726002      10.40430213         0.00000000       0.00000000       0.00000000          1
H         2.42424818       8.83065954       1.66464508         0.00000000       0.00000000       0.00000000          1
H        14.88588496       3.00552762       8.55321057         0.00000000       0.00000000       0.00000000          1
H        12.80102552       6.70552208       2.08501291         0.00000000       0.00000000       0.00000000          1
6
pbc=[F, F, F] list_num_par=6 frozen=false iter=119 energy=-0.03584583 Lattice="15.00000000 0.00000000 0.00000000 0.00000000 15.00000000 0.00000000 0.00000000 0.00000000 15.00000000" energy_frozen_part=0.00000000 Properties=species:S:1:pos:R:3:velocities:R:3:Z:I:1
H        11.06342627       0.29161872      12.68352406         0.00000000       0.00000000       0.00000000          1
H         6.44677538       2.98359343      11.90073443         0.00000000       0.00000000       0.00000000          1
H         4.77512468      12.42308397       5.83877991         0.00000000       0.00000000       0.00000000          1
H         3.84866171       6.03097233      11.76997350         0.00000000       0.00000000       0.00000000          1
H         0.49874153       8.20031370       8.96623889         0.00000000       0.00000000       0.00000000          1
H         6.64204024       5.78106818       4.52696558         0.00000000       0.00000000       0.00000000          1
6
pbc=[F, F, F] list_num_par=6 frozen=false iter=129 energy=-0.04148382 Lattice="15.00000000 0.00000000 0.00000000 0.00000000 15.00000000 0.00000000 0.00000000 0.00000000 15.00000000" energy_frozen_part=0.00000000 Properties=species:S:1:pos:R:3:velocities:R:3:Z:I:1
H        10.86140262       8.29108453       2.97932979         0.00000000       0.00000000       0.00000000          1
H         6.74898455      10.58795955      10.25977790         0.00000000       0.00000000       0.00000000          1
H         4.32215427       8.22644109       1.66910293         0.00000000       0.00000000       0.00000000          1
H        11.08430035      14.97015879       7.53253398         0.00000000       0.00000000       0.00000000          1
H         8.28265409       3.17773815      11.55552769         0.00000000       0.00000000       0.00000000          1
H         2.07055124       5.74537544       0.30255909         0.00000000       0.00000000       0.00000000          1
6
pbc=[F, F, F] list_num_par=6 frozen=false iter=139 energy=-0.04669906 Lattice="15.00000000 0.00000000 0.00000000 0.00000000 15.00000000 0.00000000 0.00000000 0.00000000 15.00000000" energy_frozen_part=0.00000000 Properties=species:S:1:pos:R:3:velocities:R:3:Z:I:1
H         7.13911226       4.58577376       7.45239768         0.00000000       0.00000000       0.00000000          1
H         7.95422541      10.52835833       1.29100979         0.00000000       0.00000000       0.00000000          1
H         8.41653722       6.61978710      10.67380004         0.00000000       0.00000000       0.00000000          1
H         8.89842170       6.53266980       1.47315698         0.00000000       0.00000000       0.00000000          1
H        13.32978183      10.20790706       7.39834642         0.00000000       0.00000000       0.00000000          1
H         2.20225604       7.86370226       7.66330684         0.00000000       0.00000000       0.00000000          1
6
pbc=[F, F, F] list_num_par=6 frozen=false iter=149 energy=-0.05070409 Lattice="15.00000000 0.00000000 0.00000000 0.00000000 15.00000000 0.00000000 0.00000000 0.00000000 15.00000000" energy_frozen_part=0.00000000 Properties=species:S:1:pos:R:3:velocities:R:3:Z:I:1
H         3.42729262      13.24657068      10.12211939         0.00000000       0.00000000       0.00000000          1
H         8.46409647       2.29635134      11.75444785         0.00000000       0.00000000       0.00000000          1
H        14.86613212      10.10242717       4.36881116         0.00000000       0.00000000       0.00000000          1
H         6.52420750       1.32409637       3.18247758         0.00000000       0.00000000       0.00000000          1
H         1.63431385      13.38112478      13.08548915         0.00000000       0.00000000       0.00000000          1
H         9.04338272      11.22958132       4.22395147         0.00000000       0.00000000       0.00000000          1
6
pbc=[F, F, F] list_num_par=6 frozen=false iter=159 energy=-0.05567352 Lattice="15.00000000 0.00000000 0.00000000 0.00000000 15.00000000 0.00000000 0.00000000 0.00000000 15.00000000" energy_frozen_part=0.00000000 Properties=species:S:1:pos:R:3:velocities:R:3:Z:I:1
H        10.06509744       5.81489036      11.34436384         0.00000000       0.00000000       0.00000000          1
H         4.77003394       4.42199377       3.42233810         0.00000000       0.00000000       0.00000000          1
H         9.14652242       9.11782174      12.55063418         0.00000000       0.00000000       0.00000000          1
H        12.93854075      11.79848351      13.23165701         0.00000000       0.00000000       0.00000000          1
H         0.95745964       5.12765749       6.39858659         0.00000000       0.00000000       0.00000000          1
H        11.08956881      11.55927515       5.95036875         0.00000000       0.00000000       0.00000000          1
6
pbc=[F, F, F] list_num_par=6 frozen=false iter=169 energy=-0.06004177 Lattice="15.00000000 0.00000000 0.00000000 0.00000000 15.00000000 0.00000000 0.00000000 0.00000000 15.00000000" energy_frozen_part=0.00000000 Properties=species:S:1:pos:R:3:velocities:R:3:Z:I:1
H         6.53156328      14.89428429       1.57886435         0.00000000       0.00000000       0.00000000          1
H         8.69928064      11.97329140       6.46054732         0.00000000       0.00000000       0.00000000          1
H         7.84267111       7.34042944       0.42636096         0.00000000       0.00000000       0.00000000          1
H        11.29943796       9.23396636      12.13394457         0.00000000       0.00000000       0.00000000          1
H        12.54583383      11.97186328      10.55698821         0.00000000       0.00000000       0.00000000          1
H         7.20482705       0.89014014       5.30792112         0.00000000       0.00000000       0.00000000          1
6
pbc=[F, F, F] list_num_par=6 frozen=false iter=179 energy=-0.06554726 Lattice="15.00000000 0.00000000 0.00000000 0.00000000 15.00000000 0.00000000 0.00000000 0.00000000 15.00000000" energy_frozen_part=0.00000000 Properties=species:S:1:pos:R:3:velocities:R:3:Z:I:1
H         2.20310598       5.34808329       9.95437165         0.00000000       0.00000000       0.00000000          1
H        10.09575816       7.80690536      10.70503727         0.00000000       0.00000000       0.00000000          1
H         5.99139346       9.87384202       7.09667146         0.00000000       0.00000000       0.00000000          1
H        13.32725285       9.40525801       9.75076072         0.00000000       0.00000000       0.00000000          1
H        13.96545592       5.66888218      12.21318226         0.00000000       0.00000000       0.00000000          1
H         6.38432243       8.45356568      13.95164113         0.00000000       0.00000000       0.00000000          1
6
pbc=[F, F, F] list_num_par=6 frozen=false iter=189 energy=-0.06926485 Lattice="15.00000000 0.00000000 0.00000000 0.00000000 15.00000000 0.00000000 0.00000000 0.00000000 15.00000000" energy_frozen_part=0.00000000 Properties=species:S:1:pos:R:3:velocities:R:3:Z:I:1
H         5.37119128       6.14803977       9.73671572         0.00000000       0.00000000       0.00000000          1
H        14.66617189       4.50608606      11.05381690         0.00000000       0.00000000       0.00000000          1
H         3.14161568      14.80823879      11.31630343         0.00000000       0.00000000       0.00000000          1
H        11.64485966       6.57261810       4.62727055         0.00000000       0.00000000       0.00000000          1
H        14.28027805       1.80301795       2.02172922         0.00000000       0.00000000       0.00000000          1
H         0.51387946      12.91162902      11.21478222         0.00000000       0.00000000       0.00000000          1
6
pbc=[F, F, F] list_num_par=6 frozen=false iter=199 energy=-0.07434044 Lattice="15.00000000 0.00000000 0.00000000 0.00000000 15.00000000 0.00000000 0.00000000 0.00000000 15.00000000" energy_frozen_part=0.00000000 Properties=species:S:1:pos:R:3:velocities:R:3:Z:I:1
H         3.45763370       4.58956665       5.00777323         0.00000000       0.00000000       0.00000000          1
H        10.08037027       1.96935211      12.40488499         0.00000000       0.00000000       0.00000000          1
H         2.39539521       5.80456493       8.91432706         0.00000000       0.00000000       0.00000000          1
H        11.41452101       2.57696964       9.37170866         0.00000000       0.00000000       0.00000000          1
H        14.71379894       5.69689353       5.02136444         0.00000000       0.00000000       0.00000000          1
H         7.70637201       9.32567001      13.26069542         0.00000000       0.00000000       0.00000000          1
6
pbc=[F, F, F] list_num_par=6 frozen=false iter=209 energy=-0.07834411 Lattice="15.00000000 0.00000000 0.00000000 0.00000000 15.00000000 0.00000000 0.00000000 0.00000000 15.00000000" energy_frozen_part=0.00000000 Properties=species:S:1:pos:R:3:velocities:R:3:Z:I:1
H        13.67309581       4.75026055       4.12008535         0.00000000       0.00000000       0.00000000          1
H         8.88698246      12.85978653      13.78268227         0.00000000       0.00000000       0.00000000          1
H        14.78725363       2.84264736       1.76763205         0.00000000       0.00000000       0.00000000          1
H        10.44118063       4.87233574      11.64299768         0.00000000       0.00000000       0.00000000          1
H        12.09980575       8.68459130       6.78509980         0.00000000       0.00000000       0.00000000          1
H         6.71182249      11.49979250       7.15842115         0.00000000       0.00000000       0.00000000          1
6
pbc=[F, F, F] list_num_par=6 frozen=false iter=219 energy=-0.08752483 Lattice="15.00000000 0.00000000 0.00000000 0.00000000 15.00000000 0.00000000 0.00000000 0.00000000 15.00000000" energy_frozen_part=0.00000000 Properties=species:S:1:pos:R:3:velocities:R:3:Z:I:1
H         3.46068298      14.08903012       7.12792137         0.00000000       0.00000000       0.00000000          1
H         3.17847055       0.27892993       0.61730651         0.00000000       0.00000000       0.00000000          1
H        13.66675614       7.48590943       8.55513568         0.00000000       0.00000000       0.00000000          1
H        13.09643369       3.27054274      10.72836706         0.00000000       0.00000000       0.00000000          1
H        10.65117677       6.39454267      10.30853195         0.00000000       0.00000000       0.00000000          1
H         4.87973611       3.97494459       0.52972976         0.00000000       0.00000000       0.00000000          1
6
pbc=[F, F, F] list_num_par=6 frozen=false iter=229 energy=-0.09015920 Lattice="15.00000000 0.00000000 0.00000000 0.00000000 15.00000000 0.00000000 0.00000000 0.00000000 15.00000000" energy_frozen_part=0.00000000 Properties=species:S:1:pos:R:3:velocities:R:3:Z:I:1
H        14.43979177      14.30526206       4.85943298         0.00000000       0.00000000       0.00000000          1
H         8.49891108      13.37849319       7.57561655         0.00000000       0.00000000       0.00000000          1
H         6.27216359       4.17326962       2.50243373         0.00000000       0.00000000       0.00000000          1
H        10.57773526       5.92030828      13.01938398         0.00000000       0.00000000       0.00000000          1
H        12.37924990      12.00221739      10.20467552         0.00000000       0.00000000       0.00000000          1
H         6.19304715       2.19155264       0.76357693         0.00000000       0.00000000       0.00000000          1
6
pbc=[F, F, F] list_num_par=6 frozen=false iter=239 energy=-0.09490859 Lattice="15.00000000 0.00000000 0.00000000 0.00000000 15.00000000 0.00000000 0.00000000 0.00000000 15.00000000" energy_frozen_part=0.00000000 Properties=species:S:1:pos:R:3:velocities:R:3:Z:I:1
H         7.74430509       2.60766742      11.92239350         0.00000000       0.00000000       0.00000000          1
H         0.04401905       6.07078713       4.96054020         0.00000000       0.00000000       0.00000000          1
H        12.24348039      14.70772923       3.83982829         0.00000000       0.00000000       0.00000000          1
H         2.05123138       6.60925945      10.39978297         0.00000000       0.00000000       0.00000000          1
H         4.99443112       5.60107961      10.19277133         0.00000000       0.00000000       0.00000000          1
H         6.94733771      12.02788939       0.09297917         0.00000000       0.00000000       0.00000000          1
6
pbc=[F, F, F] list_num_par=6 frozen=false iter=249 energy=-0.09879626 Lattice="15.00000000 0.00000000 0.00000000 0.00000000 15.00000000 0.00000000 0.00000000 0.00000000 15.00000000" energy_frozen_part=0.00000000 Properties=species:S:1:pos:R:3:velocities:R:3:Z:I:1
H         2.44869010      14.53144615       5.86171218         0.00000000       0.00000000       0.00000000          1
H        11.92192095       3.87842456       1.33625015         0.00000000       0.00000000       0.00000000          1
H        12.81358834       1.90146142       3.36411690         0.00000000       0.00000000       0.00000000          1
H         7.98105639      11.25528867       5.52015175         0.00000000       0.00000000       0.00000000          1
H         6.69079490      10.70220362      11.74819953         0.00000000       0.00000000       0.00000000          1
H        11.44691357      13.68219892       2.32254031         0.00000000       0.00000000       0.00000000          1
6
pbc=[F, F, F] list_num_par=6 frozen=false iter=259 energy=-0.10134917 Lattice="15.00000000 0.00000000 0.00000000 0.00000000 15.00000000 0.00000000 0.00000000 0.00000000 15.00000000" energy_frozen_part=0.00000000 Properties=species:S:1:pos:R:3:velocities:R:3:Z:I:1
H         4.04616587       9.79334421       6.41283984         0.00000000       0.00000000       0.00000000          1
H        14.35594866       2.44474223      14.51714918         0.00000000       0.00000000       0.00000000          1
H        13.16047544      11.31170966       3.30894043         0.00000000       0.00000000       0.00000000          1
H         4.75552354       7.19505324       5.09409781         0.00000000       0.00000000       0.00000000          1
H         0.79240122      11.24833874       1.45177778         0.00000000       0.00000000       0.00000000          1
H        10.01119568      12.89420995       0.27232048         0.00000000       0.00000000       0.00000000          1
6
pbc=[F, F, F] list_num_par=6 frozen=false iter=269 energy=-0.10441313 Lattice="15.00000000 0.00000000 0.00000000 0.00000000 15.00000000 0.00000000 0.00000000 0.00000000 15.00000000" energy_frozen_part=0.00000000 Properties=species:S:1:pos:R:3:velocities:R:3:Z:I:1
H        12.98271218       6.42796550       2.94952071         0.00000000       0.00000000       0.00000000          1
H         6.70397477       3.89016998       7.91366867         0.00000000       0.00000000       0.00000000          1
H         1.50267210      10.42026035       0.17134806         0.00000000       0.00000000       0.00000000          1
H        11.53046919       8.82524252      12.82238979         0.00000000       0.00000000       0.00000000          1
H         4.12381356       8.60234675       8.90621558         0.00000000       0.00000000       0.00000000          1
H        10.59680330       5.64312699       1.72302524         0.00000000       0.00000000       0.00000000          1
6
pbc=[F, F, F] list_num_par=6 frozen=false iter=279 energy=-0.10758067 Lattice="15.00000000 0.00000000 0.00000000 0.00000000 15.00000000 0.00000000 0.00000000 0.00000000 15.00000000" energy_frozen_part=0.00000000 Properties=species:S:1:pos:R:3:velocities:R:3:Z:I:1
H         7.75868105       3.62179556       5.25712689         0.00000000       0.00000000       0.00000000          1
H         9.93604494       4.02328635      11.69581835         0.00000000       0.00000000       0.00000000          1
H         3.88886640       9.07149602       4.61071206         0.00000000       0.00000000       0.00000000          1
H        10.81656779       2.64085973      13.83614955         0.00000000       0.00000000       0.00000000          1
H        12.72764025       7.91510928       4.21614312         0.00000000       0.00000000       0.00000000          1
H         5.81105887       3.79382216      14.32118205         0.00000000       0.00000000       0.00000000          1
6
pbc=[F, F, F] list_num_par=6 frozen=false iter=289 energy=-0.11049750 Lattice="15.00000000 0.00000000 0.00000000 0.00000000 15.00000000 0.00000000 0.00000000 0.00000000 15.00000000" energy_frozen_part=0.00000000 Properties=species:S:1:pos:R:3:velocities:R:3:Z:I:1
H         0.55473232       0.10796868       9.87533641         0.00000000       0.00000000       0.00000000          1
H        12.23533759       5.99943588       7.18397275         0.00000000       0.00000000       0.00000000          1
H         2.41471349      14.09104642       2.35334636         0.00000000       0.00000000       0.00000000          1
H        13.56164046      10.88068948      11.97857583         0.00000000       0.00000000       0.00000000          1
H        14.99664569       7.21078979       8.33761005         0.00000000       0.00000000       0.00000000          1
H         3.24707836       1.57769719       7.94121443         0.00000000       0.00000000       0.00000000          1
6
pbc=[F, F, F] list_num_par=6 frozen=false iter=299 energy=-0.11370348 Lattice="15.00000000 0.00000000 0.00000000 0.00000000 15.00000000 0.00000000 0.00000000 0.00000000 15.00000000" energy_frozen_part=0.00000000 Properties=species:S:1:pos:R:3:velocities:R:3:Z:I:1
H         7.66562353      12.30532428       2.58399978         0.00000000       0.00000000       0.00000000          1
H         5.96013724       9.08706411       5.50643259         0.00000000       0.00000000       0.00000000          1
H        10.75433619       6.31432449       5.55791138         0.00000000       0.00000000       0.00000000          1
H        11.32001320      11.51991331      11.44436587         0.00000000       0.00000000       0.00000000          1
H        12.18106436       7.52369977       7.79968344         0.00000000       0.00000000       0.00000000          1
H         5.28427897       0.77181119       2.88704148         0.00000000       0.00000000       0.00000000          1
6
pbc=[F, F, F] list_num_par=6 frozen=false iter=309 energy=-0.11717098 Lattice="15.00000000 0.00000000 0.00000000 0.00000000 15.00000000 0.00000000 0.00000000 0.00000000 15.00000000" energy_frozen_part=0.00000000 Properties=species:S:1:pos:R:3:velocities:R:3:Z:I:1
H        14.97616540       3.56565341       5.97160617         0.00000000       0.00000000       0.00000000          1
H         7.32803949       7.96788165       0.99432314         0.00000000       0.00000000       0.00000000          1