6
pbc=[F, F, F] list_num_par=6 frozen=false iter=20000 energy=-1.26974174 Lattice="15.00000000 0.00000000 0.00000000 0.00000000 15.00000000 0.00000000 0.00000000 0.00000000 15.00000000" energy_frozen_part=0.00000000 Properties=species:S:1:pos:R:3:velocities:R:3:Z:I:1
H         2.47668684      12.74279438      12.64293158         0.00000000       0.00000000       0.00000000          1
H         0.56710324      11.20748524      11.30106811         0.00000000       0.00000000       0.00000000          1
H         2.23273988      10.01647541      13.20144477         0.00000000       0.00000000       0.00000000          1
H         4.47462719      10.96660772      11.83195045         0.00000000       0.00000000       0.00000000          1
H         2.56503769       9.43129571      10.49009177         0.00000000       0.00000000       0.00000000          1
H         2.80898664      12.15762030       9.93157994         0.00000000       0.00000000       0.00000000          1
6
pbc=[F, F, F] list_num_par=6 frozen=false iter=20000 energy=-1.26974174 Lattice="15.00000000 0.00000000 0.00000000 0.00000000 15.00000000 0.00000000 0.00000000 0.00000000 15.00000000" energy_frozen_part=0.00000000 Properties=species:S:1:pos:R:3:velocities:R:3:Z:I:1
H         2.47610149      12.74262128      12.64254242         0.00000000       0.00000000       0.00000000          1
H         0.56696495      11.20692385      11.30047912         0.00000000       0.00000000       0.00000000          1
H         2.23252225      10.01628449      13.20115627         0.00000000       0.00000000       0.00000000          1
H         4.47444325      10.96671802      11.83194181         0.00000000       0.00000000       0.00000000          1
H         2.56530350       9.43101886      10.48988531         0.00000000       0.00000000       0.00000000          1
H         2.80888318      12.15735781       9.93126730         0.00000000       0.00000000       0.00000000          1
6
pbc=[F, F, F] list_num_par=6 frozen=false iter=20000 energy=-1.26974174 Lattice="15.00000000 0.00000000 0.00000000 0.00000000 15.00000000 0.00000000 0.00000000 0.00000000 15.00000000" energy_frozen_part=0.00000000 Properties=species:S:1:pos:R:3:velocities:R:3:Z:I:1
H         2.47699099      12.74232335      12.64368710         0.00000000       0.00000000       0.00000000          1
H         0.56747791      11.20738025      11.30130539         0.00000000       0.00000000       0.00000000          1
H         2.23275323      10.01592997      13.20171536         0.00000000       0.00000000       0.00000000          1
H         4.47490077      10.96610506      11.83269800         0.00000000       0.00000000       0.00000000          1
H         2.56538735       9.43116762      10.49031391         0.00000000       0.00000000       0.00000000          1
H         2.80962345      12.15756824       9.93228497         0.00000000       0.00000000       0.00000000          1
6
pbc=[F, F, F] list_num_par=6 frozen=false iter=20000 energy=-1.26974174 Lattice="15.00000000 0.00000000 0.00000000 0.00000000 15.00000000 0.00000000 0.00000000 0.00000000 15.00000000" energy_frozen_part=0.00000000 Properties=species:S:1:pos:R:3:velocities:R:3:Z:I:1
H         2.47622499      12.74272294      12.64261798         0.00000000       0.00000000       0.00000000          1
H         0.56708663      11.20713404      11.30044685         0.00000000       0.00000000       0.00000000          1
H         2.23261059      10.01636281      13.20107834         0.00000000       0.00000000       0.00000000          1
H         4.47455654      10.96684697      11.83194057         0.00000000       0.00000000       0.00000000          1
H         2.56541717       9.43124829      10.48977669         0.00000000       0.00000000       0.00000000          1
H         2.80903194      12.15761032       9.93131235         0.00000000       0.00000000       0.00000000          1
6
pbc=[F, F, F] list_num_par=6 frozen=false iter=20000 energy=-1.26974174 Lattice="15.00000000 0.00000000 0.00000000 0.00000000 15.00000000 0.00000000 0.00000000 0.00000000 15.00000000" energy_frozen_part=0.00000000 Properties=species:S:1:pos:R:3:velocities:R:3:Z:I:1
H         2.47706004      12.74231997      12.64365703         0.00000000       0.00000000       0.00000000          1
H         0.56749813      11.20740622      11.30130808         0.00000000       0.00000000       0.00000000          1
H         2.23278667      10.01592976      13.20170457         0.00000000       0.00000000       0.00000000          1
H         4.47492514      10.96606243      11.83264650         0.00000000       0.00000000       0.00000000          1
H         2.56535924       9.43115499      10.49029956         0.00000000       0.00000000       0.00000000          1
H         2.80964447      12.15754053       9.93225276         0.00000000       0.00000000       0.00000000          1
6
pbc=[F, F, F] list_num_par=6 frozen=false iter=20000 energy=-1.26974174 Lattice="15.00000000 0.00000000 0.00000000 0.00000000 15.00000000 0.00000000 0.00000000 0.00000000 15.00000000" energy_frozen_part=0.00000000 Properties=species:S:1:pos:R:3:velocities:R:3:Z:I:1
H         2.47668824      12.74274275      12.64287878         0.00000000       0.00000000       0.00000000          1
H         0.56712734      11.20739278      11.30103674         0.00000000       0.00000000       0.00000000          1
H         2.23280216      10.01641444      13.20139991         0.00000000       0.00000000       0.00000000          1
H         4.47464831      10.96658924      11.83189227         0.00000000       0.00000000       0.00000000          1
H         2.56509046       9.43123838      10.49004062         0.00000000       0.00000000       0.00000000          1
H         2.80897509      12.15756800       9.93152527         0.00000000       0.00000000       0.00000000          1
6
pbc=[F, F, F] list_num_par=6 frozen=false iter=20000 energy=-1.26974174 Lattice="15.00000000 0.00000000 0.00000000 0.00000000 15.00000000 0.00000000 0.00000000 0.00000000 15.00000000" energy_frozen_part=0.00000000 Properties=species:S:1:pos:R:3:velocities:R:3:Z:I:1
H         2.47700164      12.74231797      12.64368021         0.00000000       0.00000000       0.00000000          1
H         0.56748160      11.20738142      11.30129795         0.00000000       0.00000000       0.00000000          1
H         2.23276872      10.01591884      13.20170563         0.00000000       0.00000000       0.00000000          1
H         4.47491552      10.96611523      11.83268618         0.00000000       0.00000000       0.00000000          1
H         2.56539872       9.43117457      10.49030359         0.00000000       0.00000000       0.00000000          1
H         2.80962913      12.15756857       9.93227940         0.00000000       0.00000000       0.00000000          1
6
pbc=[F, F, F] list_num_par=6 frozen=false iter=20000 energy=-1.26974174 Lattice="15.00000000 0.00000000 0.00000000 0.00000000 15.00000000 0.00000000 0.00000000 0.00000000 15.00000000" energy_frozen_part=0.00000000 Properties=species:S:1:pos:R:3:velocities:R:3:Z:I:1
H         2.47707457      12.74231608      12.64365551         0.00000000       0.00000000       0.00000000          1
H         0.56751088      11.20740414      11.30130469         0.00000000       0.00000000       0.00000000          1
H         2.23279722      10.01592716      13.20169421         0.00000000       0.00000000       0.00000000          1
H         4.47493885      10.96606582      11.83263639         0.00000000       0.00000000       0.00000000          1
H         2.56537952       9.43115326      10.49029055         0.00000000       0.00000000       0.00000000          1
H         2.80964946      12.15753841       9.93224471         0.00000000       0.00000000       0.00000000          1
6
pbc=[F, F, F] list_num_par=6 frozen=false iter=20000 energy=-1.26974174 Lattice="15.00000000 0.00000000 0.00000000 0.00000000 15.00000000 0.00000000 0.00000000 0.00000000 15.00000000" energy_frozen_part=0.00000000 Properties=species:S:1:pos:R:3:velocities:R:3:Z:I:1
H         2.47613276      12.74270098      12.64264279         0.00000000       0.00000000       0.00000000          1
H         0.56700954      11.20710172      11.30045361         0.00000000       0.00000000       0.00000000          1
H         2.23250436      10.01633355      13.20109663         0.00000000       0.00000000       0.00000000          1
H         4.47447052      10.96681372      11.83199182         0.00000000       0.00000000       0.00000000          1
H         2.56534641       9.43122128      10.48979690         0.00000000       0.00000000       0.00000000          1
H         2.80897439      12.15758844       9.93134635         0.00000000       0.00000000       0.00000000          1
6
pbc=[F, F, F] list_num_par=6 frozen=false iter=20000 energy=-1.26974174 Lattice="15.00000000 0.00000000 0.00000000 0.00000000 15.00000000 0.00000000 0.00000000 0.00000000 15.00000000" energy_frozen_part=0.00000000 Properties=species:S:1:pos:R:3:velocities:R:3:Z:I:1
H         2.47663470      12.74282461      12.64295480         0.00000000       0.00000000       0.00000000          1
H         0.56706783      11.20746937      11.30112089         0.00000000       0.00000000       0.00000000          1
H         2.23276670      10.01648819      13.20146137         0.00000000       0.00000000       0.00000000          1
H         4.47460538      10.96668840      11.83194270         0.00000000       0.00000000       0.00000000          1
H         2.56503652       9.43133249      10.49010284         0.00000000       0.00000000       0.00000000          1
H         2.80889869      12.15766296       9.93159753         0.00000000       0.00000000       0.00000000          1
6
pbc=[F, F, F] list_num_par=6 frozen=false iter=20000 energy=-1.26974174 Lattice="15.00000000 0.00000000 0.00000000 0.00000000 15.00000000 0.00000000 0.00000000 0.00000000 15.00000000" energy_frozen_part=0.00000000 Properties=species:S:1:pos:R:3:velocities:R:3:Z:I:1
H         2.47669739      12.74279543      12.64294094         0.00000000       0.00000000       0.00000000          1
H         0.56710488      11.20747650      11.30110408         0.00000000       0.00000000       0.00000000          1
H         2.23278910      10.01646885      13.20145008         0.00000000       0.00000000       0.00000000          1
H         4.47463597      10.96662520      11.83192445         0.00000000       0.00000000       0.00000000          1
H         2.56504081       9.43130708      10.49008645         0.00000000       0.00000000       0.00000000          1
H         2.80896248      12.15763130       9.93158107         0.00000000       0.00000000       0.00000000          1
6
pbc=[F, F, F] list_num_par=6 frozen=false iter=20000 energy=-1.26974174 Lattice="15.00000000 0.00000000 0.00000000 0.00000000 15.00000000 0.00000000 0.00000000 0.00000000 15.00000000" energy_frozen_part=0.00000000 Properties=species:S:1:pos:R:3:velocities:R:3:Z:I:1
H         2.47668078      12.74274052      12.64289259         0.00000000       0.00000000       0.00000000          1
H         0.56711456      11.20737587      11.30105866         0.00000000       0.00000000       0.00000000          1
H         2.23281147      10.01641197      13.20141015         0.00000000       0.00000000       0.00000000          1
H         4.47464888      10.96660051      11.83188694         0.00000000       0.00000000       0.00000000          1
H         2.56508615       9.43123731      10.49005764         0.00000000       0.00000000       0.00000000          1
H         2.80894702      12.15757062       9.93153295         0.00000000       0.00000000       0.00000000          1
6
pbc=[F, F, F] list_num_par=6 frozen=false iter=20000 energy=-1.26974174 Lattice="15.00000000 0.00000000 0.00000000 0.00000000 15.00000000 0.00000000 0.00000000 0.00000000 15.00000000" energy_frozen_part=0.00000000 Properties=species:S:1:pos:R:3:velocities:R:3:Z:I:1
H         2.47666370      12.74270558      12.64285362         0.00000000       0.00000000       0.00000000          1
H         0.56712449      11.20725615      11.30108106         0.00000000       0.00000000       0.00000000          1
H         2.23288639      10.01638449      13.20143475         0.00000000       0.00000000       0.00000000          1
H         4.47468007      10.96660791      11.83186103         0.00000000       0.00000000       0.00000000          1
H         2.56514459       9.43115858      10.49009105         0.00000000       0.00000000       0.00000000          1
H         2.80891883      12.15748544       9.93150786         0.00000000       0.00000000       0.00000000          1
6
pbc=[F, F, F] list_num_par=6 frozen=false iter=20000 energy=-1.26974174 Lattice="15.00000000 0.00000000 0.00000000 0.00000000 15.00000000 0.00000000 0.00000000 0.00000000 15.00000000" energy_frozen_part=0.00000000 Properties=species:S:1:pos:R:3:velocities:R:3:Z:I:1
H         2.47673531      12.74269654      12.64286276         0.00000000       0.00000000       0.00000000          1
H         0.56718248      11.20727251      11.30109908         0.00000000       0.00000000       0.00000000          1
H         2.23294754      10.01637215      13.20143392         0.00000000       0.00000000       0.00000000          1
H         4.47472906      10.96658399      11.83184720         0.00000000       0.00000000       0.00000000          1
H         2.56516735       9.43115999      10.49007905         0.00000000       0.00000000       0.00000000          1
H         2.80896818      12.15748334       9.93150878         0.00000000       0.00000000       0.00000000          1
6
pbc=[F, F, F] list_num_par=6 frozen=false iter=20000 energy=-1.26974174 Lattice="15.00000000 0.00000000 0.00000000 0.00000000 15.00000000 0.00000000 0.00000000 0.00000000 15.00000000" energy_frozen_part=0.00000000 Properties=species:S:1:pos:R:3:velocities:R:3:Z:I:1
H         2.47667935      12.74272674      12.64286363         0.00000000       0.00000000       0.00000000          1
H         0.56713059      11.20728169      11.30110222         0.00000000       0.00000000       0.00000000          1
H         2.23290259      10.01640987      13.20145623         0.00000000       0.00000000       0.00000000          1
H         4.47468326      10.96662772      11.83185813         0.00000000       0.00000000       0.00000000          1
H         2.56513256       9.43117618      10.49010689         0.00000000       0.00000000       0.00000000          1
H         2.80891407      12.15750178       9.93151504         0.00000000       0.00000000       0.00000000          1
6
pbc=[F, F, F] list_num_par=6 frozen=false iter=20000 energy=-1.26974174 Lattice="15.00000000 0.00000000 0.00000000 0.00000000 15.00000000 0.00000000 0.00000000 0.00000000 15.00000000" energy_frozen_part=0.00000000 Properties=species:S:1:pos:R:3:velocities:R:3:Z:I:1
H         2.47609498      12.74261624      12.64253490         0.00000000       0.00000000       0.00000000          1
H         0.56697723      11.20690640      11.30047480         0.00000000       0.00000000       0.00000000          1
H         2.23252542      10.01628447      13.20117725         0.00000000       0.00000000       0.00000000          1
H         4.47445188      10.96671744      11.83197406         0.00000000       0.00000000       0.00000000          1
H         2.56533438       9.43100379      10.48990964         0.00000000       0.00000000       0.00000000          1
H         2.80890496      12.15733876       9.93126951         0.00000000       0.00000000       0.00000000          1
6
pbc=[F, F, F] list_num_par=6 frozen=false iter=20000 energy=-1.26974174 Lattice="15.00000000 0.00000000 0.00000000 0.00000000 15.00000000 0.00000000 0.00000000 0.00000000 15.00000000" energy_frozen_part=0.00000000 Properties=species:S:1:pos:R:3:velocities:R:3:Z:I:1
H         2.47663348      12.74282888      12.64294054         0.00000000       0.00000000       0.00000000          1
H         0.56707758      11.20747023      11.30109781         0.00000000       0.00000000       0.00000000          1
H         2.23275740      10.01650460      13.20146315         0.00000000       0.00000000       0.00000000          1
H         4.47460688      10.96668338      11.83195403         0.00000000       0.00000000       0.00000000          1
H         2.56505367       9.43131997      10.49011782         0.00000000       0.00000000       0.00000000          1
H         2.80892734      12.15764847       9.93158939         0.00000000       0.00000000       0.00000000          1
6
pbc=[F, F, F] list_num_par=6 frozen=false iter=20000 energy=-1.26974174 Lattice="15.00000000 0.00000000 0.00000000 0.00000000 15.00000000 0.00000000 0.00000000 0.00000000 15.00000000" energy_frozen_part=0.00000000 Properties=species:S:1:pos:R:3:velocities:R:3:Z:I:1
H         2.47669904      12.74279204      12.64292999         0.00000000       0.00000000       0.00000000          1
H         0.56711003      11.20748975      11.30107474         0.00000000       0.00000000       0.00000000          1
H         2.23275735      10.01646434      13.20142842         0.00000000       0.00000000       0.00000000          1
H         4.47462933      10.96660728      11.83193471         0.00000000       0.00000000       0.00000000          1
H         2.56503589       9.43129686      10.49007356         0.00000000       0.00000000       0.00000000          1
H         2.80898315      12.15762581       9.93157369         0.00000000       0.00000000       0.00000000          1
6
pbc=[F, F, F] list_num_par=6 frozen=false iter=20000 energy=-1.26974174 Lattice="15.00000000 0.00000000 0.00000000 0.00000000 15.00000000 0.00000000 0.00000000 0.00000000 15.00000000" energy_frozen_part=0.00000000 Properties=species:S:1:pos:R:3:velocities:R:3:Z:I:1
H         2.47706539      12.74231461      12.64365253         0.00000000       0.00000000       0.00000000          1
H         0.56749963      11.20740553      11.30130564         0.00000000       0.00000000       0.00000000          1
H         2.23278473      10.01592832      13.20169305         0.00000000       0.00000000       0.00000000          1
H         4.47493371      10.96606817      11.83263936         0.00000000       0.00000000       0.00000000          1
H         2.56536978       9.43115235      10.49029351         0.00000000       0.00000000       0.00000000          1
H         2.80964765      12.15754042       9.93224685         0.00000000       0.00000000       0.00000000          1
6
pbc=[F, F, F] list_num_par=6 frozen=false iter=20000 energy=-1.26974174 Lattice="15.00000000 0.00000000 0.00000000 0.00000000 15.00000000 0.00000000 0.00000000 0.00000000 15.00000000" energy_frozen_part=0.00000000 Properties=species:S:1:pos:R:3:velocities:R:3:Z:I:1
H         2.47700225      12.74231854      12.64368267         0.00000000       0.00000000       0.00000000          1
H         0.56748454      11.20738590      11.30130240         0.00000000       0.00000000       0.00000000          1
H         2.23276076      10.01592473      13.20171221         0.00000000       0.00000000       0.00000000          1
H         4.47491206      10.96610263      11.83269924         0.00000000       0.00000000       0.00000000          1
H         2.56539358       9.43116567      10.49031589         0.00000000       0.00000000       0.00000000          1
H         2.80963986      12.15756245       9.93228683         0.00000000       0.00000000       0.00000000          1
6
pbc=[F, F, F] list_num_par=6 frozen=false iter=20000 energy=-1.26974174 Lattice="15.00000000 0.00000000 0.00000000 0.00000000 15.00000000 0.00000000 0.00000000 0.00000000 15.00000000" energy_frozen_part=0.00000000 Properties=species:S:1:pos:R:3:velocities:R:3:Z:I:1
H         2.47610663      12.74269365      12.64263486         0.00000000       0.00000000       0.00000000          1
H         0.56700579      11.20708359      11.30042377         0.00000000       0.00000000       0.00000000          1
H         2.23249854      10.01632932      13.20108259         0.00000000       0.00000000       0.00000000          1
H         4.47446566      10.96682619      11.83198673         0.00000000       0.00000000       0.00000000          1
H         2.56536469       9.43122048      10.48977908         0.00000000       0.00000000       0.00000000          1
H         2.80896773      12.15758994       9.93133480         0.00000000       0.00000000       0.00000000          1
6
pbc=[F, F, F] list_num_par=6 frozen=false iter=20000 energy=-1.26974174 Lattice="15.00000000 0.00000000 0.00000000 0.00000000 15.00000000 0.00000000 0.00000000 0.00000000 15.00000000" energy_frozen_part=0.00000000 Properties=species:S:1:pos:R:3:velocities:R:3:Z:I:1
H         2.47667550      12.74272406      12.64291733         0.00000000       0.00000000       0.00000000          1
H         0.56712650      11.20737652      11.30104841         0.00000000       0.00000000       0.00000000          1
H         2.23281589      10.01638687      13.20139353         0.00000000       0.00000000       0.00000000          1
H         4.47465371      10.96660503      11.83189506         0.00000000       0.00000000       0.00000000          1
H         2.56510046       9.43125114      10.49003076         0.00000000       0.00000000       0.00000000          1
H         2.80896491      12.15758594       9.93155201         0.00000000       0.00000000       0.00000000          1
6
pbc=[F, F, F] list_num_par=6 frozen=false iter=20000 energy=-1.26974174 Lattice="15.00000000 0.00000000 0.00000000 0.00000000 15.00000000 0.00000000 0.00000000 0.00000000 15.00000000" energy_frozen_part=0.00000000 Properties=species:S:1:pos:R:3:velocities:R:3:Z:I:1
H         2.47609964      12.74261945      12.64255600         0.00000000       0.00000000       0.00000000          1
H         0.56695515      11.20695175      11.30047676         0.00000000       0.00000000       0.00000000          1
H         2.23249082      10.01627843      13.20115331         0.00000000       0.00000000       0.00000000          1
H         4.47443061      10.96670151      11.83195858         0.00000000       0.00000000       0.00000000          1
H         2.56528341       9.43103308      10.48987402         0.00000000       0.00000000       0.00000000          1
H         2.80889276      12.15737160       9.93127628         0.00000000       0.00000000       0.00000000          1
6
pbc=[F, F, F] list_num_par=6 frozen=false iter=20000 energy=-1.26974174 Lattice="15.00000000 0.00000000 0.00000000 0.00000000 15.00000000 0.00000000 0.00000000 0.00000000 15.00000000" energy_frozen_part=0.00000000 Properties=species:S:1:pos:R:3:velocities:R:3:Z:I:1
H         2.47608947      12.74261903      12.64253352         0.00000000       0.00000000       0.00000000          1
H         0.56696657      11.20692266      11.30046003         0.00000000       0.00000000       0.00000000          1
H         2.23251015      10.01628447      13.20115241         0.00000000       0.00000000       0.00000000          1
H         4.47445219      10.96671775      11.83196605         0.00000000       0.00000000       0.00000000          1
H         2.56532508       9.43102291      10.48988520         0.00000000       0.00000000       0.00000000          1
H         2.80890814      12.15735356       9.93126804         0.00000000       0.00000000       0.00000000          1
6
pbc=[F, F, F] list_num_par=6 frozen=false iter=20000 energy=-1.26974174 Lattice="15.00000000 0.00000000 0.00000000 0.00000000 15.00000000 0.00000000 0.00000000 0.00000000 15.00000000" energy_frozen_part=0.00000000 Properties=species:S:1:pos:R:3:velocities:R:3:Z:I:1
H         2.47611082      12.74261264      12.64254276         0.00000000       0.00000000       0.00000000          1
H         0.56697657      11.20692222      11.30048244         0.00000000       0.00000000       0.00000000          1
H         2.23254073      10.01627781      13.20115628         0.00000000       0.00000000       0.00000000          1
H         4.47446415      10.96672060      11.83194265         0.00000000       0.00000000       0.00000000          1
H         2.56532952       9.43102597      10.48988078         0.00000000       0.00000000       0.00000000          1
H         2.80890375      12.15735934       9.93127069         0.00000000       0.00000000       0.00000000          1
6
pbc=[F, F, F] list_num_par=6 frozen=false iter=20000 energy=-1.26974174 Lattice="15.00000000 0.00000000 0.00000000 0.00000000 15.00000000 0.00000000 0.00000000 0.00000000 15.00000000" energy_frozen_part=0.00000000 Properties=species:S:1:pos:R:3:velocities:R:3:Z:I:1
H         2.47595807      12.74252324      12.64253047         0.00000000       0.00000000       0.00000000          1
H         0.56650075      11.20687053      11.30087785         0.00000000       0.00000000       0.00000000          1
H         2.23235953      10.01622616      13.20128878         0.00000000       0.00000000       0.00000000          1
H         4.47407383      10.96649942      11.83162400         0.00000000       0.00000000       0.00000000          1
H         2.56461855       9.43084141      10.48997878         0.00000000       0.00000000       0.00000000          1
H         2.80821586      12.15714750       9.93121687         0.00000000       0.00000000       0.00000000          1
6
pbc=[F, F, F] list_num_par=6 frozen=false iter=20000 energy=-1.26974174 Lattice="15.00000000 0.00000000 0.00000000 0.00000000 15.00000000 0.00000000 0.00000000 0.00000000 15.00000000" energy_frozen_part=0.00000000 Properties=species:S:1:pos:R:3:velocities:R:3:Z:I:1
H         2.47665571      12.74278532      12.64292903         0.00000000       0.00000000       0.00000000          1
H         0.56709967      11.20741646      11.30108922         0.00000000       0.00000000       0.00000000          1
H         2.23279385      10.01645918      13.20144737         0.00000000       0.00000000       0.00000000          1
H         4.47463795      10.96665046      11.83193108         0.00000000       0.00000000       0.00000000          1
H         2.56508282       9.43128874      10.49009320         0.00000000       0.00000000       0.00000000          1
H         2.80894389      12.15761476       9.93157595         0.00000000       0.00000000       0.00000000          1
6
pbc=[F, F, F] list_num_par=6 frozen=false iter=20000 energy=-1.26974174 Lattice="15.00000000 0.00000000 0.00000000 0.00000000 15.00000000 0.00000000 0.00000000 0.00000000 15.00000000" energy_frozen_part=0.00000000 Properties=species:S:1:pos:R:3:velocities:R:3:Z:I:1
H         2.47669695      12.74277904      12.64294140         0.00000000       0.00000000       0.00000000          1
H         0.56710717      11.20747021      11.30107782         0.00000000       0.00000000       0.00000000          1
H         2.23276283      10.01645299      13.20142936         0.00000000       0.00000000       0.00000000          1
H         4.47463315      10.96659986      11.83192637         0.00000000       0.00000000       0.00000000          1
H         2.56504060       9.43129464      10.49006993         0.00000000       0.00000000       0.00000000          1
H         2.80897504      12.15762828       9.93158314         0.00000000       0.00000000       0.00000000          1
6
pbc=[F, F, F] list_num_par=6 frozen=false iter=20000 energy=-1.26974174 Lattice="15.00000000 0.00000000 0.00000000 0.00000000 15.00000000 0.00000000 0.00000000 0.00000000 15.00000000" energy_frozen_part=0.00000000 Properties=species:S:1:pos:R:3:velocities:R:3:Z:I:1
H         2.47609052      12.74262235      12.64253793         0.00000000       0.00000000       0.00000000          1
H         0.56695283      11.20691870      11.30048322         0.00000000       0.00000000       0.00000000          1
H         2.23251219      10.01628894      13.20116950         0.00000000       0.00000000       0.00000000          1
H         4.47443391      10.96671352      11.83194779         0.00000000       0.00000000       0.00000000          1
H         2.56530250       9.43101180      10.48989455         0.00000000       0.00000000       0.00000000          1
H         2.80886985      12.15734540       9.93126446         0.00000000       0.00000000       0.00000000          1
6
pbc=[F, F, F] list_num_par=6 frozen=false iter=20000 energy=-1.26974174 Lattice="15.00000000 0.00000000 0.00000000 0.00000000 15.00000000 0.00000000 0.00000000 0.00000000 15.00000000" energy_frozen_part=0.00000000 Properties=species:S:1:pos:R:3:velocities:R:3:Z:I:1
H         2.47622970      12.74271624      12.64261695         0.00000000       0.00000000       0.00000000          1
H         0.56708291      11.20712914      11.30045482         0.00000000       0.00000000       0.00000000          1
H         2.23260605      10.01635634      13.20108222         0.00000000       0.00000000       0.00000000          1
H         4.47455750      10.96683537      11.83193388         0.00000000       0.00000000       0.00000000          1
H         2.56540775       9.43124395      10.48977821         0.00000000       0.00000000       0.00000000          1
H         2.80902645      12.15760549       9.93131279         0.00000000       0.00000000       0.00000000          1
6
pbc=[F, F, F] list_num_par=6 frozen=false iter=20000 energy=-1.26974174 Lattice="15.00000000 0.00000000 0.00000000 0.00000000 15.00000000 0.00000000 0.00000000 0.00000000 15.00000000" energy_frozen_part=0.00000000 Properties=species:S:1:pos:R:3:velocities:R:3:Z:I:1
H         2.47672793      12.74269934      12.64285144         0.00000000       0.00000000       0.00000000          1
H         0.56717160      11.20727184      11.30108805         0.00000000       0.00000000       0.00000000          1