6
pbc=[F, F, F] list_num_par=6 frozen=false iter=20000 energy=-1.26974174 Lattice="15.00000000 0.00000000 0.00000000 0.00000000 15.00000000 0.00000000 0.00000000 0.00000000 15.00000000" energy_frozen_part=0.00000000 Properties=species:S:1:pos:R:3:velocities:R:3:Z:I:1
H        14.44314710       5.91995735       8.72227976         0.00000000       0.00000000       0.00000000          1
H        10.74745398       7.30343635       8.53156772         0.00000000       0.00000000       0.00000000          1
H        12.36816696       6.27135107      10.55946664         0.00000000       0.00000000       0.00000000          1
H        11.93499579       4.79296197       8.22901281         0.00000000       0.00000000       0.00000000          1
H        12.82243350       6.95204496       6.69438126         0.00000000       0.00000000       0.00000000          1
H        13.25561183       8.43043815       9.02482944         0.00000000       0.00000000       0.00000000          1
6
pbc=[F, F, F] list_num_par=6 frozen=false iter=20000 energy=-1.26974174 Lattice="15.00000000 0.00000000 0.00000000 0.00000000 15.00000000 0.00000000 0.00000000 0.00000000 15.00000000" energy_frozen_part=0.00000000 Properties=species:S:1:pos:R:3:velocities:R:3:Z:I:1
H        14.44603703       5.91724594       8.72226659         0.00000000       0.00000000       0.00000000          1
H        10.74981611       7.29900756       8.52916064         0.00000000       0.00000000       0.00000000          1
H        12.36995397       6.26836886      10.55825809         0.00000000       0.00000000       0.00000000          1
H        11.93863835       4.78895447       8.22812017         0.00000000       0.00000000       0.00000000          1
H        12.82590393       6.94788655       6.69317005         0.00000000       0.00000000       0.00000000          1
H        13.25721987       8.42729921       9.02331394         0.00000000       0.00000000       0.00000000          1
6
pbc=[F, F, F] list_num_par=6 frozen=false iter=20000 energy=-1.26974174 Lattice="15.00000000 0.00000000 0.00000000 0.00000000 15.00000000 0.00000000 0.00000000 0.00000000 15.00000000" energy_frozen_part=0.00000000 Properties=species:S:1:pos:R:3:velocities:R:3:Z:I:1
H        14.44606235       5.91722801       8.72220911         0.00000000       0.00000000       0.00000000          1
H        10.74985498       7.29902201       8.52919794         0.00000000       0.00000000       0.00000000          1
H        12.37002501       6.26836266      10.55825564         0.00000000       0.00000000       0.00000000          1
H        11.93864152       4.78895488       8.22811227         0.00000000       0.00000000       0.00000000          1
H        12.82588590       6.94788319       6.69315403         0.00000000       0.00000000       0.00000000          1
H        13.25727109       8.42728915       9.02329000         0.00000000       0.00000000       0.00000000          1
6
pbc=[F, F, F] list_num_par=6 frozen=false iter=20000 energy=-1.26974174 Lattice="15.00000000 0.00000000 0.00000000 0.00000000 15.00000000 0.00000000 0.00000000 0.00000000 15.00000000" energy_frozen_part=0.00000000 Properties=species:S:1:pos:R:3:velocities:R:3:Z:I:1
H        14.44603809       5.91725507       8.72225769         0.00000000       0.00000000       0.00000000          1
H        10.74981940       7.29900548       8.52913408         0.00000000       0.00000000       0.00000000          1
H        12.36994805       6.26837221      10.55824087         0.00000000       0.00000000       0.00000000          1
H        11.93864566       4.78894977       8.22809616         0.00000000       0.00000000       0.00000000          1
H        12.82590742       6.94788447       6.69315305         0.00000000       0.00000000       0.00000000          1
H        13.25721896       8.42730561       9.02329946         0.00000000       0.00000000       0.00000000          1
6
pbc=[F, F, F] list_num_par=6 frozen=false iter=20000 energy=-1.26974174 Lattice="15.00000000 0.00000000 0.00000000 0.00000000 15.00000000 0.00000000 0.00000000 0.00000000 15.00000000" energy_frozen_part=0.00000000 Properties=species:S:1:pos:R:3:velocities:R:3:Z:I:1
H        14.44602659       5.91726134       8.72228087         0.00000000       0.00000000       0.00000000          1
H        10.74982842       7.29907243       8.52917591         0.00000000       0.00000000       0.00000000          1
H        12.36994887       6.26842959      10.55828209         0.00000000       0.00000000       0.00000000          1
H        11.93861187       4.78899741       8.22815169         0.00000000       0.00000000       0.00000000          1
H        12.82589712       6.94790140       6.69317844         0.00000000       0.00000000       0.00000000          1
H        13.25724049       8.42733491       9.02331325         0.00000000       0.00000000       0.00000000          1
6
pbc=[F, F, F] list_num_par=6 frozen=false iter=20000 energy=-1.26974174 Lattice="15.00000000 0.00000000 0.00000000 0.00000000 15.00000000 0.00000000 0.00000000 0.00000000 15.00000000" energy_frozen_part=0.00000000 Properties=species:S:1:pos:R:3:velocities:R:3:Z:I:1
H        14.44687708       5.91879458       8.72258277         0.00000000       0.00000000       0.00000000          1
H        10.74969893       7.29794081       8.52922922         0.00000000       0.00000000       0.00000000          1
H        12.37071825       6.26927889      10.55861951         0.00000000       0.00000000       0.00000000          1
H        11.94020669       4.78858012       8.22913674         0.00000000       0.00000000       0.00000000          1
H        12.82585953       6.94746691       6.69319204         0.00000000       0.00000000       0.00000000          1
H        13.25637220       8.42816287       9.02267013         0.00000000       0.00000000       0.00000000          1
6
pbc=[F, F, F] list_num_par=6 frozen=false iter=20000 energy=-1.26974174 Lattice="15.00000000 0.00000000 0.00000000 0.00000000 15.00000000 0.00000000 0.00000000 0.00000000 15.00000000" energy_frozen_part=0.00000000 Properties=species:S:1:pos:R:3:velocities:R:3:Z:I:1
H        14.44604027       5.91726629       8.72228497         0.00000000       0.00000000       0.00000000          1
H        10.74983883       7.29906355       8.52920592         0.00000000       0.00000000       0.00000000          1
H        12.36997700       6.26841218      10.55828997         0.00000000       0.00000000       0.00000000          1
H        11.93862679       4.78899786       8.22814959         0.00000000       0.00000000       0.00000000          1
H        12.82590276       6.94792031       6.69319373         0.00000000       0.00000000       0.00000000          1
H        13.25725728       8.42733620       9.02333025         0.00000000       0.00000000       0.00000000          1
6
pbc=[F, F, F] list_num_par=6 frozen=false iter=20000 energy=-1.26974174 Lattice="15.00000000 0.00000000 0.00000000 0.00000000 15.00000000 0.00000000 0.00000000 0.00000000 15.00000000" energy_frozen_part=0.00000000 Properties=species:S:1:pos:R:3:velocities:R:3:Z:I:1
H        14.44602494       5.91720996       8.72228216         0.00000000       0.00000000       0.00000000          1
H        10.74985844       7.29912130       8.52921302         0.00000000       0.00000000       0.00000000          1
H        12.36997018       6.26841869      10.55829839         0.00000000       0.00000000       0.00000000          1
H        11.93857030       4.78901773       8.22815753         0.00000000       0.00000000       0.00000000          1
H        12.82590425       6.94791118       6.69320284         0.00000000       0.00000000       0.00000000          1
H        13.25730940       8.42731260       9.02334337         0.00000000       0.00000000       0.00000000          1
6
pbc=[F, F, F] list_num_par=6 frozen=false iter=20000 energy=-1.26974174 Lattice="15.00000000 0.00000000 0.00000000 0.00000000 15.00000000 0.00000000 0.00000000 0.00000000 15.00000000" energy_frozen_part=0.00000000 Properties=species:S:1:pos:R:3:velocities:R:3:Z:I:1
H        12.19132360      10.11042254      11.77932025         0.00000000       0.00000000       0.00000000          1
H        14.81644597       9.57736390      10.98629861         0.00000000       0.00000000       0.00000000          1
H        11.36594289       7.67725087      10.68265247         0.00000000       0.00000000       0.00000000          1
H        13.99106098       7.14418800       9.88963283         0.00000000       0.00000000       0.00000000          1
H        12.75076584       9.52167442       9.10636618         0.00000000       0.00000000       0.00000000          1
H        13.43162580       7.73294616      12.56258493         0.00000000       0.00000000       0.00000000          1
6
pbc=[F, F, F] list_num_par=6 frozen=false iter=20000 energy=-1.26974174 Lattice="15.00000000 0.00000000 0.00000000 0.00000000 15.00000000 0.00000000 0.00000000 0.00000000 15.00000000" energy_frozen_part=0.00000000 Properties=species:S:1:pos:R:3:velocities:R:3:Z:I:1
H        14.44684695       5.91877591       8.72265306         0.00000000       0.00000000       0.00000000          1
H        10.74973253       7.29807664       8.52918437         0.00000000       0.00000000       0.00000000          1
H        12.37067309       6.26942035      10.55864440         0.00000000       0.00000000       0.00000000          1
H        11.94013093       4.78864172       8.22922035         0.00000000       0.00000000       0.00000000          1
H        12.82590219       6.94742197       6.69319674         0.00000000       0.00000000       0.00000000          1
H        13.25644156       8.42820264       9.02261901         0.00000000       0.00000000       0.00000000          1
6
pbc=[F, F, F] list_num_par=6 frozen=false iter=20000 energy=-1.26974174 Lattice="15.00000000 0.00000000 0.00000000 0.00000000 15.00000000 0.00000000 0.00000000 0.00000000 15.00000000" energy_frozen_part=0.00000000 Properties=species:S:1:pos:R:3:velocities:R:3:Z:I:1
H        14.44603843       5.91725714       8.72225980         0.00000000       0.00000000       0.00000000          1
H        10.74981722       7.29899727       8.52913811         0.00000000       0.00000000       0.00000000          1
H        12.36994498       6.26837219      10.55824901         0.00000000       0.00000000       0.00000000          1
H        11.93864512       4.78894782       8.22810390         0.00000000       0.00000000       0.00000000          1
H        12.82591041       6.94788423       6.69315596         0.00000000       0.00000000       0.00000000          1
H        13.25720303       8.42730894       9.02329961         0.00000000       0.00000000       0.00000000          1
6
pbc=[F, F, F] list_num_par=6 frozen=false iter=20000 energy=-1.26974174 Lattice="15.00000000 0.00000000 0.00000000 0.00000000 15.00000000 0.00000000 0.00000000 0.00000000 15.00000000" energy_frozen_part=0.00000000 Properties=species:S:1:pos:R:3:velocities:R:3:Z:I:1
H        14.44606471       5.91724118       8.72221341         0.00000000       0.00000000       0.00000000          1
H        10.74985061       7.29901315       8.52919668         0.00000000       0.00000000       0.00000000          1
H        12.37002549       6.26835943      10.55825338         0.00000000       0.00000000       0.00000000          1
H        11.93865445       4.78895919       8.22811249         0.00000000       0.00000000       0.00000000          1
H        12.82589333       6.94788939       6.69314977         0.00000000       0.00000000       0.00000000          1
H        13.25726621       8.42729352       9.02329168         0.00000000       0.00000000       0.00000000          1
6
pbc=[F, F, F] list_num_par=6 frozen=false iter=20000 energy=-1.26974174 Lattice="15.00000000 0.00000000 0.00000000 0.00000000 15.00000000 0.00000000 0.00000000 0.00000000 15.00000000" energy_frozen_part=0.00000000 Properties=species:S:1:pos:R:3:velocities:R:3:Z:I:1
H        14.44681981       5.91880459       8.72262290         0.00000000       0.00000000       0.00000000          1
H        10.74968232       7.29805114       8.52917900         0.00000000       0.00000000       0.00000000          1
H        12.37064022       6.26938615      10.55861325         0.00000000       0.00000000       0.00000000          1
H        11.94012579       4.78864407       8.22916283         0.00000000       0.00000000       0.00000000          1
H        12.82586007       6.94747850       6.69318865         0.00000000       0.00000000       0.00000000          1
H        13.25637985       8.42821117       9.02264816         0.00000000       0.00000000       0.00000000          1
6
pbc=[F, F, F] list_num_par=6 frozen=false iter=20000 energy=-1.26974174 Lattice="15.00000000 0.00000000 0.00000000 0.00000000 15.00000000 0.00000000 0.00000000 0.00000000 15.00000000" energy_frozen_part=0.00000000 Properties=species:S:1:pos:R:3:velocities:R:3:Z:I:1
H        14.44687538       5.91880451       8.72258214         0.00000000       0.00000000       0.00000000          1
H        10.74969192       7.29793476       8.52922125         0.00000000       0.00000000       0.00000000          1
H        12.37071197       6.26927269      10.55861568         0.00000000       0.00000000       0.00000000          1
H        11.94021515       4.78857503       8.22913393         0.00000000       0.00000000       0.00000000          1
H        12.82585820       6.94746568       6.69319176         0.00000000       0.00000000       0.00000000          1
H        13.25635412       8.42816637       9.02266969         0.00000000       0.00000000       0.00000000          1
6
pbc=[F, F, F] list_num_par=6 frozen=false iter=20000 energy=-1.26974174 Lattice="15.00000000 0.00000000 0.00000000 0.00000000 15.00000000 0.00000000 0.00000000 0.00000000 15.00000000" energy_frozen_part=0.00000000 Properties=species:S:1:pos:R:3:velocities:R:3:Z:I:1
H        14.44602755       5.91725835       8.72228724         0.00000000       0.00000000       0.00000000          1
H        10.74982529       7.29905558       8.52919741         0.00000000       0.00000000       0.00000000          1
H        12.36996153       6.26841656      10.55828826         0.00000000       0.00000000       0.00000000          1
H        11.93861593       4.78898951       8.22815916         0.00000000       0.00000000       0.00000000          1
H        12.82589750       6.94790348       6.69319152         0.00000000       0.00000000       0.00000000          1
H        13.25724029       8.42732485       9.02332484         0.00000000       0.00000000       0.00000000          1
6
pbc=[F, F, F] list_num_par=6 frozen=false iter=20000 energy=-1.26974174 Lattice="15.00000000 0.00000000 0.00000000 0.00000000 15.00000000 0.00000000 0.00000000 0.00000000 15.00000000" energy_frozen_part=0.00000000 Properties=species:S:1:pos:R:3:velocities:R:3:Z:I:1
H        14.44682211       5.91879622       8.72264119         0.00000000       0.00000000       0.00000000          1
H        10.74968148       7.29804323       8.52917738         0.00000000       0.00000000       0.00000000          1
H        12.37063118       6.26938009      10.55862373         0.00000000       0.00000000       0.00000000          1
H        11.94012421       4.78863800       8.22917848         0.00000000       0.00000000       0.00000000          1
H        12.82586512       6.94745779       6.69319508         0.00000000       0.00000000       0.00000000          1
H        13.25637432       8.42819980       9.02264914         0.00000000       0.00000000       0.00000000          1
6
pbc=[F, F, F] list_num_par=6 frozen=false iter=20000 energy=-1.26974174 Lattice="15.00000000 0.00000000 0.00000000 0.00000000 15.00000000 0.00000000 0.00000000 0.00000000 15.00000000" energy_frozen_part=0.00000000 Properties=species:S:1:pos:R:3:velocities:R:3:Z:I:1
H        14.44601659       5.91721253       8.72226361         0.00000000       0.00000000       0.00000000          1
H        10.74985010       7.29911609       8.52922055         0.00000000       0.00000000       0.00000000          1
H        12.36997875       6.26842938      10.55829510         0.00000000       0.00000000       0.00000000          1
H        11.93856283       4.78901812       8.22816120         0.00000000       0.00000000       0.00000000          1
H        12.82588182       6.94790488       6.69319059         0.00000000       0.00000000       0.00000000          1
H        13.25729966       8.42731342       9.02332358         0.00000000       0.00000000       0.00000000          1
6
pbc=[F, F, F] list_num_par=6 frozen=false iter=20000 energy=-1.26974174 Lattice="15.00000000 0.00000000 0.00000000 0.00000000 15.00000000 0.00000000 0.00000000 0.00000000 15.00000000" energy_frozen_part=0.00000000 Properties=species:S:1:pos:R:3:velocities:R:3:Z:I:1
H        14.44684608       5.91882315       8.72255914         0.00000000       0.00000000       0.00000000          1
H        10.74969434       7.29804721       8.52915283         0.00000000       0.00000000       0.00000000          1
H        12.37068058       6.26938416      10.55857037         0.00000000       0.00000000       0.00000000          1
H        11.94014893       4.78864620       8.22912267         0.00000000       0.00000000       0.00000000          1
H        12.82586144       6.94748589       6.69314370         0.00000000       0.00000000       0.00000000          1
H        13.25638924       8.42821825       9.02259273         0.00000000       0.00000000       0.00000000          1
6
pbc=[F, F, F] list_num_par=6 frozen=false iter=20000 energy=-1.26974174 Lattice="15.00000000 0.00000000 0.00000000 0.00000000 15.00000000 0.00000000 0.00000000 0.00000000 15.00000000" energy_frozen_part=0.00000000 Properties=species:S:1:pos:R:3:velocities:R:3:Z:I:1
H        14.44691451       5.91883542       8.72258808         0.00000000       0.00000000       0.00000000          1
H        10.74970502       7.29789080       8.52919757         0.00000000       0.00000000       0.00000000          1
H        12.37073959       6.26927012      10.55860299         0.00000000       0.00000000       0.00000000          1
H        11.94028127       4.78855245       8.22912430         0.00000000       0.00000000       0.00000000          1
H        12.82588686       6.94745824       6.69317807         0.00000000       0.00000000       0.00000000          1
H        13.25634691       8.42817391       9.02265656         0.00000000       0.00000000       0.00000000          1
6
pbc=[F, F, F] list_num_par=6 frozen=false iter=20000 energy=-1.26974174 Lattice="15.00000000 0.00000000 0.00000000 0.00000000 15.00000000 0.00000000 0.00000000 0.00000000 15.00000000" energy_frozen_part=0.00000000 Properties=species:S:1:pos:R:3:velocities:R:3:Z:I:1
H        14.44691664       5.91880694       8.72257495         0.00000000       0.00000000       0.00000000          1
H        10.74972854       7.29794886       8.52930348         0.00000000       0.00000000       0.00000000          1
H        12.37081400       6.26932339      10.55866437         0.00000000       0.00000000       0.00000000          1
H        11.94023633       4.78857541       8.22923052         0.00000000       0.00000000       0.00000000          1
H        12.82583183       6.94743577       6.69321382         0.00000000       0.00000000       0.00000000          1
H        13.25640941       8.42818044       9.02265097         0.00000000       0.00000000       0.00000000          1
6
pbc=[F, F, F] list_num_par=6 frozen=false iter=20000 energy=-1.26974174 Lattice="15.00000000 0.00000000 0.00000000 0.00000000 15.00000000 0.00000000 0.00000000 0.00000000 15.00000000" energy_frozen_part=0.00000000 Properties=species:S:1:pos:R:3:velocities:R:3:Z:I:1
H        14.44683197       5.91881005       8.72264838         0.00000000       0.00000000       0.00000000          1
H        10.74970530       7.29807969       8.52915445         0.00000000       0.00000000       0.00000000          1
H        12.37064222       6.26944066      10.55862108         0.00000000       0.00000000       0.00000000          1
H        11.94012731       4.78866335       8.22919507         0.00000000       0.00000000       0.00000000          1
H        12.82589041       6.94744679       6.69317702         0.00000000       0.00000000       0.00000000          1
H        13.25640621       8.42822732       9.02260644         0.00000000       0.00000000       0.00000000          1
6
pbc=[F, F, F] list_num_par=6 frozen=false iter=20000 energy=-1.26974174 Lattice="15.00000000 0.00000000 0.00000000 0.00000000 15.00000000 0.00000000 0.00000000 0.00000000 15.00000000" energy_frozen_part=0.00000000 Properties=species:S:1:pos:R:3:velocities:R:3:Z:I:1
H        14.44684836       5.91879070       8.72263349         0.00000000       0.00000000       0.00000000          1
H        10.74971703       7.29804816       8.52918171         0.00000000       0.00000000       0.00000000          1
H        12.37068096       6.26941323      10.55863081         0.00000000       0.00000000       0.00000000          1
H        11.94014554       4.78862746       8.22921371         0.00000000       0.00000000       0.00000000          1
H        12.82588424       6.94742625       6.69318775         0.00000000       0.00000000       0.00000000          1
H        13.25641924       8.42820365       9.02261003         0.00000000       0.00000000       0.00000000          1
6
pbc=[F, F, F] list_num_par=6 frozen=false iter=20000 energy=-1.26974174 Lattice="15.00000000 0.00000000 0.00000000 0.00000000 15.00000000 0.00000000 0.00000000 0.00000000 15.00000000" energy_frozen_part=0.00000000 Properties=species:S:1:pos:R:3:velocities:R:3:Z:I:1
H        14.44687788       5.91878930       8.72258439         0.00000000       0.00000000       0.00000000          1
H        10.74970804       7.29795684       8.52922316         0.00000000       0.00000000       0.00000000          1
H        12.37072472       6.26928662      10.55861221         0.00000000       0.00000000       0.00000000          1
H        11.94020581       4.78858452       8.22913527         0.00000000       0.00000000       0.00000000          1
H        12.82586667       6.94746301       6.69319048         0.00000000       0.00000000       0.00000000          1
H        13.25637997       8.42816300       9.02266433         0.00000000       0.00000000       0.00000000          1
6
pbc=[F, F, F] list_num_par=6 frozen=false iter=20000 energy=-1.26974174 Lattice="15.00000000 0.00000000 0.00000000 0.00000000 15.00000000 0.00000000 0.00000000 0.00000000 15.00000000" energy_frozen_part=0.00000000 Properties=species:S:1:pos:R:3:velocities:R:3:Z:I:1
H        14.44684867       5.91881276       8.72257390         0.00000000       0.00000000       0.00000000          1
H        10.74970950       7.29805031       8.52918947         0.00000000       0.00000000       0.00000000          1
H        12.37070568       6.26939283      10.55860196         0.00000000       0.00000000       0.00000000          1
H        11.94015266       4.78865043       8.22914992         0.00000000       0.00000000       0.00000000          1
H        12.82585960       6.94747953       6.69315959         0.00000000       0.00000000       0.00000000          1
H        13.25640793       8.42821667       9.02260783         0.00000000       0.00000000       0.00000000          1
6
pbc=[F, F, F] list_num_par=6 frozen=false iter=20000 energy=-1.26974174 Lattice="15.00000000 0.00000000 0.00000000 0.00000000 15.00000000 0.00000000 0.00000000 0.00000000 15.00000000" energy_frozen_part=0.00000000 Properties=species:S:1:pos:R:3:velocities:R:3:Z:I:1
H        14.44604980       5.91727060       8.72227341         0.00000000       0.00000000       0.00000000          1
H        10.74983868       7.29903613       8.52914714         0.00000000       0.00000000       0.00000000          1
H        12.36996180       6.26842310      10.55826053         0.00000000       0.00000000       0.00000000          1
H        11.93865280       4.78897258       8.22813482         0.00000000       0.00000000       0.00000000          1
H        12.82591933       6.94787721       6.69315561         0.00000000       0.00000000       0.00000000          1
H        13.25724252       8.42732936       9.02328403         0.00000000       0.00000000       0.00000000          1
6
pbc=[F, F, F] list_num_par=6 frozen=false iter=20000 energy=-1.26974174 Lattice="15.00000000 0.00000000 0.00000000 0.00000000 15.00000000 0.00000000 0.00000000 0.00000000 15.00000000" energy_frozen_part=0.00000000 Properties=species:S:1:pos:R:3:velocities:R:3:Z:I:1
H        14.44311886       5.91990903       8.72225845         0.00000000       0.00000000       0.00000000          1
H        10.74743859       7.30344370       8.53158178         0.00000000       0.00000000       0.00000000          1
H        12.36815711       6.27134428      10.55946662         0.00000000       0.00000000       0.00000000          1
H        11.93494149       4.79294344       8.22903107         0.00000000       0.00000000       0.00000000          1
H        12.82239472       6.95200992       6.69437244         0.00000000       0.00000000       0.00000000          1
H        13.25561924       8.43040192       9.02481371         0.00000000       0.00000000       0.00000000          1
6
pbc=[F, F, F] list_num_par=6 frozen=false iter=20000 energy=-1.26974174 Lattice="15.00000000 0.00000000 0.00000000 0.00000000 15.00000000 0.00000000 0.00000000 0.00000000 15.00000000" energy_frozen_part=0.00000000 Properties=species:S:1:pos:R:3:velocities:R:3:Z:I:1
H        14.44684719       5.91876842       8.72266706         0.00000000       0.00000000       0.00000000          1
H        10.74973495       7.29808918       8.52922275         0.00000000       0.00000000       0.00000000          1
H        12.37069026       6.26941924      10.55866243         0.00000000       0.00000000       0.00000000          1
H        11.94012829       4.78865092       8.22923623         0.00000000       0.00000000       0.00000000          1
H        12.82589292       6.94743905       6.69322040         0.00000000       0.00000000       0.00000000          1
H        13.25645852       8.42820006       9.02264943         0.00000000       0.00000000       0.00000000          1
6
pbc=[F, F, F] list_num_par=6 frozen=false iter=20000 energy=-1.26974174 Lattice="15.00000000 0.00000000 0.00000000 0.00000000 15.00000000 0.00000000 0.00000000 0.00000000 15.00000000" energy_frozen_part=0.00000000 Properties=species:S:1:pos:R:3:velocities:R:3:Z:I:1
H        14.44684827       5.91877063       8.72265293         0.00000000       0.00000000       0.00000000          1
H        10.74973476       7.29807344       8.52919450         0.00000000       0.00000000       0.00000000          1
H        12.37068474       6.26941704      10.55864505         0.00000000       0.00000000       0.00000000          1
H        11.94013485       4.78864152       8.22921716         0.00000000       0.00000000       0.00000000          1
H        12.82589743       6.94742682       6.69319948         0.00000000       0.00000000       0.00000000          1
H        13.25644436       8.42820796       9.02262148         0.00000000       0.00000000       0.00000000          1
6
pbc=[F, F, F] list_num_par=6 frozen=false iter=20000 energy=-1.26974174 Lattice="15.00000000 0.00000000 0.00000000 0.00000000 15.00000000 0.00000000 0.00000000 0.00000000 15.00000000" energy_frozen_part=0.00000000 Properties=species:S:1:pos:R:3:velocities:R:3:Z:I:1
H        14.44683160       5.91880300       8.72261364         0.00000000       0.00000000       0.00000000          1
H        10.74969411       7.29804941       8.52917841         0.00000000       0.00000000       0.00000000          1
H        12.37065897       6.26936526      10.55860769         0.00000000       0.00000000       0.00000000          1
H        11.94013401       4.78864569       8.22914526         0.00000000       0.00000000       0.00000000          1
H        12.82586601       6.94748046       6.69318307         0.00000000       0.00000000       0.00000000          1
H        13.25638922       8.42820408       9.02264009         0.00000000       0.00000000       0.00000000          1
6
pbc=[F, F, F] list_num_par=6 frozen=false iter=20000 energy=-1.26974174 Lattice="15.00000000 0.00000000 0.00000000 0.00000000 15.00000000 0.00000000 0.00000000 0.00000000 15.00000000" energy_frozen_part=0.00000000 Properties=species:S:1:pos:R:3:velocities:R:3:Z:I:1
H        14.44602069       5.91721007       8.72226891         0.00000000       0.00000000       0.00000000          1
H        10.74984953       7.29910041       8.52920718         0.00000000       0.00000000       0.00000000          1
H        12.36996596       6.26840521      10.55828598         0.00000000       0.00000000       0.00000000          1
H        11.93857327       4.78900559       8.22814300         0.00000000       0.00000000       0.00000000          1
H        12.82589873       6.94791286       6.69319158         0.00000000       0.00000000       0.00000000          1
H        13.25729537       8.42730131       9.02333923         0.00000000       0.00000000       0.00000000          1
6
pbc=[F, F, F] list_num_par=6 frozen=false iter=20000 energy=-1.26974174 Lattice="15.00000000 0.00000000 0.00000000 0.00000000 15.00000000 0.00000000 0.00000000 0.00000000 15.00000000" energy_frozen_part=0.00000000 Properties=species:S:1:pos:R:3:velocities:R:3:Z:I:1
H        14.44601508       5.91721937       8.72223733         0.00000000       0.00000000       0.00000000          1
H        10.74985942       7.29914311       8.52922588         0.00000000       0.00000000       0.00000000          1