6
pbc=[F, F, F] list_num_par=6 frozen=false iter=20000 energy=-1.26974174 Lattice="15.00000000 0.00000000 0.00000000 0.00000000 15.00000000 0.00000000 0.00000000 0.00000000 15.00000000" energy_frozen_part=0.00000000 Properties=species:S:1:pos:R:3:velocities:R:3:Z:I:1
H         3.44495370       7.43013123      10.28264649         0.00000000       0.00000000       0.00000000          1
H         1.27017661       8.06413548      11.91748370         0.00000000       0.00000000       0.00000000          1
H         3.07719905       6.08357205      12.70252382         0.00000000       0.00000000       0.00000000          1
H         3.01065864       8.52828004      14.05280009         0.00000000       0.00000000       0.00000000          1
H         5.18543373       7.89427487      12.41796741         0.00000000       0.00000000       0.00000000          1
H         3.37840728       9.87484156      11.63292243         0.00000000       0.00000000       0.00000000          1
6
pbc=[F, F, F] list_num_par=6 frozen=false iter=20000 energy=-1.26974174 Lattice="15.00000000 0.00000000 0.00000000 0.00000000 15.00000000 0.00000000 0.00000000 0.00000000 15.00000000" energy_frozen_part=0.00000000 Properties=species:S:1:pos:R:3:velocities:R:3:Z:I:1
H         3.44492055       7.42997699      10.28265923         0.00000000       0.00000000       0.00000000          1
H         1.27043056       8.06373235      11.91796099         0.00000000       0.00000000       0.00000000          1
H         3.07771566       6.08319591      12.70249569         0.00000000       0.00000000       0.00000000          1
H         3.01130225       8.52779481      14.05298072         0.00000000       0.00000000       0.00000000          1
H         5.18578934       7.89404869      12.41767415         0.00000000       0.00000000       0.00000000          1
H         3.37850785       9.87457898      11.63314007         0.00000000       0.00000000       0.00000000          1
6
pbc=[F, F, F] list_num_par=6 frozen=false iter=20000 energy=-1.26974174 Lattice="15.00000000 0.00000000 0.00000000 0.00000000 15.00000000 0.00000000 0.00000000 0.00000000 15.00000000" energy_frozen_part=0.00000000 Properties=species:S:1:pos:R:3:velocities:R:3:Z:I:1
H         3.44492854       7.42983318      10.28259856         0.00000000       0.00000000       0.00000000          1
H         1.27044938       8.06361178      11.91791322         0.00000000       0.00000000       0.00000000          1
H         3.07796001       6.08336748      12.70265172         0.00000000       0.00000000       0.00000000          1
H         3.01137760       8.52816513      14.05277765         0.00000000       0.00000000       0.00000000          1
H         5.18584939       7.89438219      12.41746771         0.00000000       0.00000000       0.00000000          1
H         3.37833571       9.87462401      11.63272254         0.00000000       0.00000000       0.00000000          1
6
pbc=[F, F, F] list_num_par=6 frozen=false iter=20000 energy=-1.26974174 Lattice="15.00000000 0.00000000 0.00000000 0.00000000 15.00000000 0.00000000 0.00000000 0.00000000 15.00000000" energy_frozen_part=0.00000000 Properties=species:S:1:pos:R:3:velocities:R:3:Z:I:1
H         3.44497264       7.42992887      10.28263217         0.00000000       0.00000000       0.00000000          1
H         1.27052080       8.06368433      11.91799060         0.00000000       0.00000000       0.00000000          1
H         3.07805658       6.08344115      12.70268141         0.00000000       0.00000000       0.00000000          1
H         3.01147620       8.52822107      14.05283425         0.00000000       0.00000000       0.00000000          1
H         5.18593063       7.89445593      12.41748122         0.00000000       0.00000000       0.00000000          1
H         3.37840083       9.87470709      11.63278765         0.00000000       0.00000000       0.00000000          1
6
pbc=[F, F, F] list_num_par=6 frozen=false iter=20000 energy=-1.26974174 Lattice="15.00000000 0.00000000 0.00000000 0.00000000 15.00000000 0.00000000 0.00000000 0.00000000 15.00000000" energy_frozen_part=0.00000000 Properties=species:S:1:pos:R:3:velocities:R:3:Z:I:1
H         3.44496251       7.42995270      10.28263641         0.00000000       0.00000000       0.00000000          1
H         1.27048663       8.06370056      11.91796129         0.00000000       0.00000000       0.00000000          1
H         3.07799974       6.08343344      12.70265501         0.00000000       0.00000000       0.00000000          1
H         3.01141051       8.52819699      14.05284163         0.00000000       0.00000000       0.00000000          1
H         5.18588646       7.89444756      12.41751181         0.00000000       0.00000000       0.00000000          1
H         3.37837724       9.87471594      11.63281687         0.00000000       0.00000000       0.00000000          1
6
pbc=[F, F, F] list_num_par=6 frozen=false iter=20000 energy=-1.26974174 Lattice="15.00000000 0.00000000 0.00000000 0.00000000 15.00000000 0.00000000 0.00000000 0.00000000 15.00000000" energy_frozen_part=0.00000000 Properties=species:S:1:pos:R:3:velocities:R:3:Z:I:1
H         3.44168155       7.39613358      10.26347967         0.00000000       0.00000000       0.00000000          1
H         1.26549426       8.03932761      11.89282672         0.00000000       0.00000000       0.00000000          1
H         3.09344672       6.09065737      12.70862897         0.00000000       0.00000000       0.00000000          1
H         3.00735823       8.55893466      14.01418884         0.00000000       0.00000000       0.00000000          1
H         5.18355098       7.91573255      12.38484289         0.00000000       0.00000000       0.00000000          1
H         3.35559870       9.86441074      11.56903906         0.00000000       0.00000000       0.00000000          1
6
pbc=[F, F, F] list_num_par=6 frozen=false iter=20000 energy=-1.26974174 Lattice="15.00000000 0.00000000 0.00000000 0.00000000 15.00000000 0.00000000 0.00000000 0.00000000 15.00000000" energy_frozen_part=0.00000000 Properties=species:S:1:pos:R:3:velocities:R:3:Z:I:1
H         3.44171609       7.39606905      10.26353087         0.00000000       0.00000000       0.00000000          1
H         1.26549049       8.03934279      11.89280248         0.00000000       0.00000000       0.00000000          1
H         3.09341073       6.09068947      12.70872184         0.00000000       0.00000000       0.00000000          1
H         3.00731228       8.55901429      14.01418467         0.00000000       0.00000000       0.00000000          1
H         5.18354178       7.91573131      12.38491778         0.00000000       0.00000000       0.00000000          1
H         3.35562443       9.86438950      11.56899460         0.00000000       0.00000000       0.00000000          1
6
pbc=[F, F, F] list_num_par=6 frozen=false iter=20000 energy=-1.26974174 Lattice="15.00000000 0.00000000 0.00000000 0.00000000 15.00000000 0.00000000 0.00000000 0.00000000 15.00000000" energy_frozen_part=0.00000000 Properties=species:S:1:pos:R:3:velocities:R:3:Z:I:1
H         3.44237927       7.43023852      10.28234003         0.00000000       0.00000000       0.00000000          1
H         1.26896793       8.06258683      11.91962975         0.00000000       0.00000000       0.00000000          1
H         3.07880755       6.08391772      12.70298116         0.00000000       0.00000000       0.00000000          1
H         3.01157625       8.52889099      14.05273870         0.00000000       0.00000000       0.00000000          1
H         5.18499011       7.89654074      12.41545255         0.00000000       0.00000000       0.00000000          1
H         3.37515414       9.87521326      11.63210028         0.00000000       0.00000000       0.00000000          1
6
pbc=[F, F, F] list_num_par=6 frozen=false iter=20000 energy=-1.26974174 Lattice="15.00000000 0.00000000 0.00000000 0.00000000 15.00000000 0.00000000 0.00000000 0.00000000 15.00000000" energy_frozen_part=0.00000000 Properties=species:S:1:pos:R:3:velocities:R:3:Z:I:1
H         3.44495426       7.42994021      10.28263262         0.00000000       0.00000000       0.00000000          1
H         1.27051215       8.06370689      11.91800120         0.00000000       0.00000000       0.00000000          1
H         3.07803912       6.08345000      12.70267691         0.00000000       0.00000000       0.00000000          1
H         3.01149291       8.52822311      14.05283582         0.00000000       0.00000000       0.00000000          1
H         5.18592828       7.89445909      12.41746436         0.00000000       0.00000000       0.00000000          1
H         3.37840422       9.87471709      11.63278726         0.00000000       0.00000000       0.00000000          1
6
pbc=[F, F, F] list_num_par=6 frozen=false iter=20000 energy=-1.26974174 Lattice="15.00000000 0.00000000 0.00000000 0.00000000 15.00000000 0.00000000 0.00000000 0.00000000 15.00000000" energy_frozen_part=0.00000000 Properties=species:S:1:pos:R:3:velocities:R:3:Z:I:1
H         3.44495039       7.43011617      10.28265413         0.00000000       0.00000000       0.00000000          1
H         1.27017698       8.06411155      11.91749161         0.00000000       0.00000000       0.00000000          1
H         3.07721987       6.08356678      12.70254908         0.00000000       0.00000000       0.00000000          1
H         3.01066108       8.52828979      14.05280248         0.00000000       0.00000000       0.00000000          1
H         5.18543017       7.89429493      12.41796397         0.00000000       0.00000000       0.00000000          1
H         3.37838585       9.87483785      11.63291381         0.00000000       0.00000000       0.00000000          1
6
pbc=[F, F, F] list_num_par=6 frozen=false iter=20000 energy=-1.26974174 Lattice="15.00000000 0.00000000 0.00000000 0.00000000 15.00000000 0.00000000 0.00000000 0.00000000 15.00000000" energy_frozen_part=0.00000000 Properties=species:S:1:pos:R:3:velocities:R:3:Z:I:1
H         3.44495336       7.43012966      10.28266690         0.00000000       0.00000000       0.00000000          1
H         1.27016906       8.06413227      11.91748236         0.00000000       0.00000000       0.00000000          1
H         3.07718357       6.08355980      12.70253835         0.00000000       0.00000000       0.00000000          1
H         3.01062845       8.52827577      14.05281548         0.00000000       0.00000000       0.00000000          1
H         5.18541554       7.89426728      12.41800408         0.00000000       0.00000000       0.00000000          1
H         3.37840619       9.87484411      11.63294206         0.00000000       0.00000000       0.00000000          1
6
pbc=[F, F, F] list_num_par=6 frozen=false iter=20000 energy=-1.26974174 Lattice="15.00000000 0.00000000 0.00000000 0.00000000 15.00000000 0.00000000 0.00000000 0.00000000 15.00000000" energy_frozen_part=0.00000000 Properties=species:S:1:pos:R:3:velocities:R:3:Z:I:1
H         3.44496238       7.43014408      10.28266801         0.00000000       0.00000000       0.00000000          1
H         1.27016661       8.06413521      11.91747867         0.00000000       0.00000000       0.00000000          1
H         3.07718278       6.08356816      12.70253602         0.00000000       0.00000000       0.00000000          1
H         3.01062039       8.52827302      14.05281749         0.00000000       0.00000000       0.00000000          1
H         5.18541602       7.89427916      12.41800780         0.00000000       0.00000000       0.00000000          1
H         3.37840317       9.87484779      11.63295677         0.00000000       0.00000000       0.00000000          1
6
pbc=[F, F, F] list_num_par=6 frozen=false iter=20000 energy=-1.26974174 Lattice="15.00000000 0.00000000 0.00000000 0.00000000 15.00000000 0.00000000 0.00000000 0.00000000 15.00000000" energy_frozen_part=0.00000000 Properties=species:S:1:pos:R:3:velocities:R:3:Z:I:1
H         3.44161926       7.39608762      10.26342859         0.00000000       0.00000000       0.00000000          1
H         1.26542595       8.03931878      11.89277285         0.00000000       0.00000000       0.00000000          1
H         3.09334268       6.09060475      12.70856647         0.00000000       0.00000000       0.00000000          1
H         3.00730304       8.55887402      14.01414308         0.00000000       0.00000000       0.00000000          1
H         5.18348617       7.91564354      12.38480448         0.00000000       0.00000000       0.00000000          1
H         3.35557031       9.86435533      11.56900584         0.00000000       0.00000000       0.00000000          1
6
pbc=[F, F, F] list_num_par=6 frozen=false iter=20000 energy=-1.26974174 Lattice="15.00000000 0.00000000 0.00000000 0.00000000 15.00000000 0.00000000 0.00000000 0.00000000 15.00000000" energy_frozen_part=0.00000000 Properties=species:S:1:pos:R:3:velocities:R:3:Z:I:1
H         3.44494868       7.43014796      10.28267205         0.00000000       0.00000000       0.00000000          1
H         1.27017015       8.06414274      11.91749337         0.00000000       0.00000000       0.00000000          1
H         3.07718811       6.08356614      12.70253860         0.00000000       0.00000000       0.00000000          1
H         3.01064527       8.52827264      14.05282297         0.00000000       0.00000000       0.00000000          1
H         5.18542458       7.89427327      12.41800002         0.00000000       0.00000000       0.00000000          1
H         3.37840748       9.87485364      11.63295502         0.00000000       0.00000000       0.00000000          1
6
pbc=[F, F, F] list_num_par=6 frozen=false iter=20000 energy=-1.26974174 Lattice="15.00000000 0.00000000 0.00000000 0.00000000 15.00000000 0.00000000 0.00000000 0.00000000 15.00000000" energy_frozen_part=0.00000000 Properties=species:S:1:pos:R:3:velocities:R:3:Z:I:1
H         3.44241294       7.42999340      10.28245686         0.00000000       0.00000000       0.00000000          1
H         1.26900978       8.06240411      11.91972840         0.00000000       0.00000000       0.00000000          1
H         3.07890439       6.08383762      12.70320582         0.00000000       0.00000000       0.00000000          1
H         3.01163291       8.52891516      14.05278426         0.00000000       0.00000000       0.00000000          1
H         5.18503687       7.89650183      12.41550852         0.00000000       0.00000000       0.00000000          1
H         3.37513651       9.87506723      11.63204148         0.00000000       0.00000000       0.00000000          1
6
pbc=[F, F, F] list_num_par=6 frozen=false iter=20000 energy=-1.26974174 Lattice="15.00000000 0.00000000 0.00000000 0.00000000 15.00000000 0.00000000 0.00000000 0.00000000 15.00000000" energy_frozen_part=0.00000000 Properties=species:S:1:pos:R:3:velocities:R:3:Z:I:1
H         3.44496124       7.43013363      10.28267081         0.00000000       0.00000000       0.00000000          1
H         1.27016704       8.06413487      11.91747863         0.00000000       0.00000000       0.00000000          1
H         3.07718312       6.08356575      12.70254219         0.00000000       0.00000000       0.00000000          1
H         3.01062526       8.52827240      14.05281582         0.00000000       0.00000000       0.00000000          1
H         5.18541640       7.89427890      12.41800554         0.00000000       0.00000000       0.00000000          1
H         3.37840140       9.87484240      11.63294118         0.00000000       0.00000000       0.00000000          1
6
pbc=[F, F, F] list_num_par=6 frozen=false iter=20000 energy=-1.26974174 Lattice="15.00000000 0.00000000 0.00000000 0.00000000 15.00000000 0.00000000 0.00000000 0.00000000 15.00000000" energy_frozen_part=0.00000000 Properties=species:S:1:pos:R:3:velocities:R:3:Z:I:1
H         3.44495278       7.43012236      10.28264645         0.00000000       0.00000000       0.00000000          1
H         1.27018060       8.06412528      11.91747820         0.00000000       0.00000000       0.00000000          1
H         3.07720722       6.08355989      12.70252242         0.00000000       0.00000000       0.00000000          1
H         3.01066198       8.52827349      14.05279330         0.00000000       0.00000000       0.00000000          1
H         5.18543541       7.89427784      12.41795641         0.00000000       0.00000000       0.00000000          1
H         3.37840569       9.87483740      11.63291798         0.00000000       0.00000000       0.00000000          1
6
pbc=[F, F, F] list_num_par=6 frozen=false iter=20000 energy=-1.26974174 Lattice="15.00000000 0.00000000 0.00000000 0.00000000 15.00000000 0.00000000 0.00000000 0.00000000 15.00000000" energy_frozen_part=0.00000000 Properties=species:S:1:pos:R:3:velocities:R:3:Z:I:1
H         3.44158147       7.39610722      10.26345842         0.00000000       0.00000000       0.00000000          1
H         1.26542505       8.03936029      11.89282241         0.00000000       0.00000000       0.00000000          1
H         3.09332813       6.09063594      12.70860923         0.00000000       0.00000000       0.00000000          1
H         3.00732753       8.55890844      14.01417659         0.00000000       0.00000000       0.00000000          1
H         5.18348496       7.91565380      12.38480510         0.00000000       0.00000000       0.00000000          1
H         3.35557448       9.86438326      11.56902572         0.00000000       0.00000000       0.00000000          1
6
pbc=[F, F, F] list_num_par=6 frozen=false iter=20000 energy=-1.26974174 Lattice="15.00000000 0.00000000 0.00000000 0.00000000 15.00000000 0.00000000 0.00000000 0.00000000 15.00000000" energy_frozen_part=0.00000000 Properties=species:S:1:pos:R:3:velocities:R:3:Z:I:1
H         3.44160973       7.39606972      10.26343783         0.00000000       0.00000000       0.00000000          1
H         1.26543368       8.03934068      11.89277224         0.00000000       0.00000000       0.00000000          1
H         3.09332570       6.09062092      12.70859390         0.00000000       0.00000000       0.00000000          1
H         3.00731391       8.55891315      14.01413544         0.00000000       0.00000000       0.00000000          1
H         5.18348610       7.91563058      12.38479966         0.00000000       0.00000000       0.00000000          1
H         3.35559304       9.86435780      11.56898026         0.00000000       0.00000000       0.00000000          1
6
pbc=[F, F, F] list_num_par=6 frozen=false iter=20000 energy=-1.26974174 Lattice="15.00000000 0.00000000 0.00000000 0.00000000 15.00000000 0.00000000 0.00000000 0.00000000 15.00000000" energy_frozen_part=0.00000000 Properties=species:S:1:pos:R:3:velocities:R:3:Z:I:1
H         3.44240258       7.42997686      10.28245393         0.00000000       0.00000000       0.00000000          1
H         1.26900237       8.06244523      11.91969802         0.00000000       0.00000000       0.00000000          1
H         3.07883370       6.08382619      12.70319483         0.00000000       0.00000000       0.00000000          1
H         3.01160197       8.52890173      14.05277611         0.00000000       0.00000000       0.00000000          1
H         5.18501119       7.89643205      12.41553064         0.00000000       0.00000000       0.00000000          1
H         3.37518308       9.87505166      11.63204112         0.00000000       0.00000000       0.00000000          1
6
pbc=[F, F, F] list_num_par=6 frozen=false iter=20000 energy=-1.26974174 Lattice="15.00000000 0.00000000 0.00000000 0.00000000 15.00000000 0.00000000 0.00000000 0.00000000 15.00000000" energy_frozen_part=0.00000000 Properties=species:S:1:pos:R:3:velocities:R:3:Z:I:1
H         3.44239223       7.43023873      10.28234055         0.00000000       0.00000000       0.00000000          1
H         1.26897651       8.06258691      11.91962454         0.00000000       0.00000000       0.00000000          1
H         3.07880871       6.08391517      12.70298816         0.00000000       0.00000000       0.00000000          1
H         3.01157947       8.52889074      14.05274472         0.00000000       0.00000000       0.00000000          1
H         5.18498785       7.89654494      12.41545771         0.00000000       0.00000000       0.00000000          1
H         3.37515600       9.87521709      11.63210121         0.00000000       0.00000000       0.00000000          1
6
pbc=[F, F, F] list_num_par=6 frozen=false iter=20000 energy=-1.26974174 Lattice="15.00000000 0.00000000 0.00000000 0.00000000 15.00000000 0.00000000 0.00000000 0.00000000 15.00000000" energy_frozen_part=0.00000000 Properties=species:S:1:pos:R:3:velocities:R:3:Z:I:1
H         3.44171475       7.39605010      10.26353464         0.00000000       0.00000000       0.00000000          1
H         1.26550156       8.03934083      11.89280970         0.00000000       0.00000000       0.00000000          1
H         3.09342705       6.09068966      12.70873760         0.00000000       0.00000000       0.00000000          1
H         3.00733991       8.55902788      14.01417904         0.00000000       0.00000000       0.00000000          1
H         5.18355084       7.91573635      12.38490607         0.00000000       0.00000000       0.00000000          1
H         3.35562462       9.86438438      11.56897611         0.00000000       0.00000000       0.00000000          1
6
pbc=[F, F, F] list_num_par=6 frozen=false iter=20000 energy=-1.26974174 Lattice="15.00000000 0.00000000 0.00000000 0.00000000 15.00000000 0.00000000 0.00000000 0.00000000 15.00000000" energy_frozen_part=0.00000000 Properties=species:S:1:pos:R:3:velocities:R:3:Z:I:1
H         3.44159210       7.39605196      10.26344622         0.00000000       0.00000000       0.00000000          1
H         1.26541819       8.03932457      11.89279119         0.00000000       0.00000000       0.00000000          1
H         3.09331721       6.09059796      12.70859608         0.00000000       0.00000000       0.00000000          1
H         3.00730901       8.55887991      14.01414991         0.00000000       0.00000000       0.00000000          1
H         5.18347713       7.91561439      12.38479903         0.00000000       0.00000000       0.00000000          1
H         3.35557687       9.86433836      11.56899335         0.00000000       0.00000000       0.00000000          1
6
pbc=[F, F, F] list_num_par=6 frozen=false iter=20000 energy=-1.26974174 Lattice="15.00000000 0.00000000 0.00000000 0.00000000 15.00000000 0.00000000 0.00000000 0.00000000 15.00000000" energy_frozen_part=0.00000000 Properties=species:S:1:pos:R:3:velocities:R:3:Z:I:1
H         3.44160904       7.39607289      10.26343011         0.00000000       0.00000000       0.00000000          1
H         1.26543323       8.03933283      11.89276888         0.00000000       0.00000000       0.00000000          1
H         3.09332302       6.09060211      12.70857407         0.00000000       0.00000000       0.00000000          1
H         3.00731031       8.55887557      14.01414243         0.00000000       0.00000000       0.00000000          1
H         5.18348325       7.91561497      12.38479929         0.00000000       0.00000000       0.00000000          1
H         3.35558914       9.86434826      11.56899390         0.00000000       0.00000000       0.00000000          1
6
pbc=[F, F, F] list_num_par=6 frozen=false iter=20000 energy=-1.26974174 Lattice="15.00000000 0.00000000 0.00000000 0.00000000 15.00000000 0.00000000 0.00000000 0.00000000 15.00000000" energy_frozen_part=0.00000000 Properties=species:S:1:pos:R:3:velocities:R:3:Z:I:1
H         3.44159769       7.39607372      10.26342327         0.00000000       0.00000000       0.00000000          1
H         1.26543142       8.03932725      11.89278737         0.00000000       0.00000000       0.00000000          1
H         3.09333140       6.09060487      12.70857218         0.00000000       0.00000000       0.00000000          1
H         3.00732535       8.55888066      14.01414369         0.00000000       0.00000000       0.00000000          1
H         5.18348840       7.91562232      12.38478603         0.00000000       0.00000000       0.00000000          1
H         3.35558326       9.86434693      11.56899403         0.00000000       0.00000000       0.00000000          1
6
pbc=[F, F, F] list_num_par=6 frozen=false iter=20000 energy=-1.26974174 Lattice="15.00000000 0.00000000 0.00000000 0.00000000 15.00000000 0.00000000 0.00000000 0.00000000 15.00000000" energy_frozen_part=0.00000000 Properties=species:S:1:pos:R:3:velocities:R:3:Z:I:1
H         3.44236464       7.43022372      10.28237315         0.00000000       0.00000000       0.00000000          1
H         1.26897391       8.06261251      11.91967026         0.00000000       0.00000000       0.00000000          1
H         3.07877182       6.08389781      12.70300830         0.00000000       0.00000000       0.00000000          1
H         3.01158889       8.52887401      14.05278059         0.00000000       0.00000000       0.00000000          1
H         5.18498168       7.89648400      12.41548230         0.00000000       0.00000000       0.00000000          1
H         3.37518718       9.87519780      11.63214186         0.00000000       0.00000000       0.00000000          1
6
pbc=[F, F, F] list_num_par=6 frozen=false iter=20000 energy=-1.26974174 Lattice="15.00000000 0.00000000 0.00000000 0.00000000 15.00000000 0.00000000 0.00000000 0.00000000 15.00000000" energy_frozen_part=0.00000000 Properties=species:S:1:pos:R:3:velocities:R:3:Z:I:1
H         3.44239501       7.42997649      10.28245993         0.00000000       0.00000000       0.00000000          1
H         1.26900451       8.06239786      11.91974773         0.00000000       0.00000000       0.00000000          1
H         3.07891187       6.08382851      12.70321459         0.00000000       0.00000000       0.00000000          1
H         3.01164394       8.52890470      14.05278643         0.00000000       0.00000000       0.00000000          1
H         5.18503686       7.89649085      12.41549948         0.00000000       0.00000000       0.00000000          1
H         3.37513067       9.87505275      11.63203385         0.00000000       0.00000000       0.00000000          1
6
pbc=[F, F, F] list_num_par=6 frozen=false iter=20000 energy=-1.26974174 Lattice="15.00000000 0.00000000 0.00000000 0.00000000 15.00000000 0.00000000 0.00000000 0.00000000 15.00000000" energy_frozen_part=0.00000000 Properties=species:S:1:pos:R:3:velocities:R:3:Z:I:1
H         3.44159261       7.39610467      10.26345961         0.00000000       0.00000000       0.00000000          1
H         1.26543071       8.03935209      11.89282392         0.00000000       0.00000000       0.00000000          1
H         3.09334663       6.09063545      12.70861094         0.00000000       0.00000000       0.00000000          1
H         3.00733032       8.55891038      14.01417905         0.00000000       0.00000000       0.00000000          1
H         5.18348969       7.91566321      12.38480941         0.00000000       0.00000000       0.00000000          1
H         3.35557080       9.86437741      11.56902984         0.00000000       0.00000000       0.00000000          1
6
pbc=[F, F, F] list_num_par=6 frozen=false iter=20000 energy=-1.26974174 Lattice="15.00000000 0.00000000 0.00000000 0.00000000 15.00000000 0.00000000 0.00000000 0.00000000 15.00000000" energy_frozen_part=0.00000000 Properties=species:S:1:pos:R:3:velocities:R:3:Z:I:1
H         3.44168894       7.39613041      10.26347789         0.00000000       0.00000000       0.00000000          1
H         1.26548923       8.03932222      11.89280841         0.00000000       0.00000000       0.00000000          1
H         3.09344917       6.09065854      12.70862900         0.00000000       0.00000000       0.00000000          1
H         3.00734271       8.55893875      14.01418282         0.00000000       0.00000000       0.00000000          1
H         5.18354249       7.91575371      12.38484795         0.00000000       0.00000000       0.00000000          1
H         3.35558295       9.86441000      11.56902989         0.00000000       0.00000000       0.00000000          1
6
pbc=[F, F, F] list_num_par=6 frozen=false iter=20000 energy=-1.26974174 Lattice="15.00000000 0.00000000 0.00000000 0.00000000 15.00000000 0.00000000 0.00000000 0.00000000 15.00000000" energy_frozen_part=0.00000000 Properties=species:S:1:pos:R:3:velocities:R:3:Z:I:1
H         3.44495103       7.43011972      10.28265744         0.00000000       0.00000000       0.00000000          1
H         1.27017559       8.06411525      11.91749557         0.00000000       0.00000000       0.00000000          1
H         3.07722917       6.08357736      12.70254486         0.00000000       0.00000000       0.00000000          1
H         3.01066128       8.52829891      14.05279793         0.00000000       0.00000000       0.00000000          1
H         5.18543942       7.89430670      12.41795984         0.00000000       0.00000000       0.00000000          1
H         3.37839089       9.87484413      11.63290547         0.00000000       0.00000000       0.00000000          1
6
pbc=[F, F, F] list_num_par=6 frozen=false iter=20000 energy=-1.26974174 Lattice="15.00000000 0.00000000 0.00000000 0.00000000 15.00000000 0.00000000 0.00000000 0.00000000 15.00000000" energy_frozen_part=0.00000000 Properties=species:S:1:pos:R:3:velocities:R:3:Z:I:1
H         3.44238884       7.43023832      10.28237244         0.00000000       0.00000000       0.00000000          1
H         1.26897891       8.06259721      11.91965709         0.00000000       0.00000000       0.00000000          1