6
pbc=[F, F, F] list_num_par=6 energy=-1.26974174 iter=20000 frozen=false Lattice="15.00000000 0.00000000 0.00000000 0.00000000 15.00000000 0.00000000 0.00000000 0.00000000 15.00000000" energy_frozen_part=0.00000000 Properties=species:S:1:pos:R:3:velocities:R:3:Z:I:1
H         2.43560192       8.39768243       4.50633438         0.00000000       0.00000000       0.00000000          1
H         1.94071631      10.24914630       7.96115404         0.00000000       0.00000000       0.00000000          1
H         0.75868887       8.04706414       6.71298316         0.00000000       0.00000000       0.00000000          1
H         3.52887794       8.13342309       7.06352504         0.00000000       0.00000000       0.00000000          1
H         3.61762949      10.59976550       5.75450218         0.00000000       0.00000000       0.00000000          1
H         0.84744563      10.51341117       5.40396336         0.00000000       0.00000000       0.00000000          1
6
pbc=[F, F, F] list_num_par=6 energy=-1.26974174 iter=20000 frozen=false Lattice="15.00000000 0.00000000 0.00000000 0.00000000 15.00000000 0.00000000 0.00000000 0.00000000 15.00000000" energy_frozen_part=0.00000000 Properties=species:S:1:pos:R:3:velocities:R:3:Z:I:1
H         2.43724834       8.39618932       4.50596358         0.00000000       0.00000000       0.00000000          1
H         1.93767668      10.24413792       7.96198381         0.00000000       0.00000000       0.00000000          1
H         0.76012762       8.04085354       6.71170531         0.00000000       0.00000000       0.00000000          1
H         3.53002200       8.13197727       7.06337169         0.00000000       0.00000000       0.00000000          1
H         3.61480137      10.59947011       5.75624469         0.00000000       0.00000000       0.00000000          1
H         0.84491042      10.50835191       5.40458202         0.00000000       0.00000000       0.00000000          1
6
pbc=[F, F, F] list_num_par=6 energy=-1.26974174 iter=20000 frozen=false Lattice="15.00000000 0.00000000 0.00000000 0.00000000 15.00000000 0.00000000 0.00000000 0.00000000 15.00000000" energy_frozen_part=0.00000000 Properties=species:S:1:pos:R:3:velocities:R:3:Z:I:1
H         2.43726108       8.39608333       4.50601439         0.00000000       0.00000000       0.00000000          1
H         1.93789673      10.24433190       7.96190435         0.00000000       0.00000000       0.00000000          1
H         0.76013658       8.04106090       6.71180545         0.00000000       0.00000000       0.00000000          1
H         3.53004146       8.13196556       7.06342539         0.00000000       0.00000000       0.00000000          1
H         3.61501890      10.59935849       5.75611172         0.00000000       0.00000000       0.00000000          1
H         0.84510989      10.50844650       5.40449325         0.00000000       0.00000000       0.00000000          1
6
pbc=[F, F, F] list_num_par=6 energy=-1.26974174 iter=20000 frozen=false Lattice="15.00000000 0.00000000 0.00000000 0.00000000 15.00000000 0.00000000 0.00000000 0.00000000 15.00000000" energy_frozen_part=0.00000000 Properties=species:S:1:pos:R:3:velocities:R:3:Z:I:1
H         2.43720488       8.39607379       4.50605189         0.00000000       0.00000000       0.00000000          1
H         1.93787555      10.24439679       7.96190604         0.00000000       0.00000000       0.00000000          1
H         0.76007752       8.04111722       6.71184518         0.00000000       0.00000000       0.00000000          1
H         3.52998536       8.13198287       7.06346475         0.00000000       0.00000000       0.00000000          1
H         3.61500504      10.59934811       5.75611219         0.00000000       0.00000000       0.00000000          1
H         0.84509494      10.50847677       5.40449268         0.00000000       0.00000000       0.00000000          1
6
pbc=[F, F, F] list_num_par=6 energy=-1.26974174 iter=20000 frozen=false Lattice="15.00000000 0.00000000 0.00000000 0.00000000 15.00000000 0.00000000 0.00000000 0.00000000 15.00000000" energy_frozen_part=0.00000000 Properties=species:S:1:pos:R:3:velocities:R:3:Z:I:1
H         2.43730260       8.39615322       4.50604838         0.00000000       0.00000000       0.00000000          1
H         1.93740706      10.24428418       7.96192760         0.00000000       0.00000000       0.00000000          1
H         0.75996779       8.04094260       6.71164678         0.00000000       0.00000000       0.00000000          1
H         3.52983020       8.13207338       7.06356797         0.00000000       0.00000000       0.00000000          1
H         3.61473840      10.59949969       5.75632913         0.00000000       0.00000000       0.00000000          1
H         0.84488322      10.50837001       5.40439900         0.00000000       0.00000000       0.00000000          1
6
pbc=[F, F, F] list_num_par=6 energy=-1.26974174 iter=20000 frozen=false Lattice="15.00000000 0.00000000 0.00000000 0.00000000 15.00000000 0.00000000 0.00000000 0.00000000 15.00000000" energy_frozen_part=0.00000000 Properties=species:S:1:pos:R:3:velocities:R:3:Z:I:1
H         2.43752383       8.39474971       4.50625160         0.00000000       0.00000000       0.00000000          1
H         1.93692353      10.24515577       7.96081520         0.00000000       0.00000000       0.00000000          1
H         0.75964052       8.04107561       6.71168349         0.00000000       0.00000000       0.00000000          1
H         3.52942145       8.13225664       7.06421208         0.00000000       0.00000000       0.00000000          1
H         3.61480525      10.59883047       5.75538840         0.00000000       0.00000000       0.00000000          1
H         0.84502333      10.50764461       5.40286265         0.00000000       0.00000000       0.00000000          1
6
pbc=[F, F, F] list_num_par=6 energy=-1.26974174 iter=20000 frozen=false Lattice="15.00000000 0.00000000 0.00000000 0.00000000 15.00000000 0.00000000 0.00000000 0.00000000 15.00000000" energy_frozen_part=0.00000000 Properties=species:S:1:pos:R:3:velocities:R:3:Z:I:1
H         2.43560667       8.39766778       4.50633014         0.00000000       0.00000000       0.00000000          1
H         1.94074244      10.24915165       7.96113299         0.00000000       0.00000000       0.00000000          1
H         0.75870549       8.04705777       6.71299394         0.00000000       0.00000000       0.00000000          1
H         3.52890002       8.13341890       7.06350996         0.00000000       0.00000000       0.00000000          1
H         3.61764274      10.59976220       5.75446889         0.00000000       0.00000000       0.00000000          1
H         0.84744703      10.51340053       5.40395365         0.00000000       0.00000000       0.00000000          1
6
pbc=[F, F, F] list_num_par=6 energy=-1.26974174 iter=20000 frozen=false Lattice="15.00000000 0.00000000 0.00000000 0.00000000 15.00000000 0.00000000 0.00000000 0.00000000 15.00000000" energy_frozen_part=0.00000000 Properties=species:S:1:pos:R:3:velocities:R:3:Z:I:1
H         2.43752168       8.39474938       4.50625148         0.00000000       0.00000000       0.00000000          1
H         1.93692571      10.24515650       7.96081158         0.00000000       0.00000000       0.00000000          1
H         0.75964627       8.04107128       6.71168769         0.00000000       0.00000000       0.00000000          1
H         3.52942602       8.13225963       7.06420817         0.00000000       0.00000000       0.00000000          1
H         3.61480311      10.59882637       5.75538388         0.00000000       0.00000000       0.00000000          1
H         0.84501808      10.50764421       5.40285837         0.00000000       0.00000000       0.00000000          1
6
pbc=[F, F, F] list_num_par=6 energy=-1.26974174 iter=20000 frozen=false Lattice="15.00000000 0.00000000 0.00000000 0.00000000 15.00000000 0.00000000 0.00000000 0.00000000 15.00000000" energy_frozen_part=0.00000000 Properties=species:S:1:pos:R:3:velocities:R:3:Z:I:1
H         2.43730552       8.39616075       4.50604478         0.00000000       0.00000000       0.00000000          1
H         1.93741278      10.24428278       7.96192820         0.00000000       0.00000000       0.00000000          1
H         0.75996984       8.04094571       6.71163962         0.00000000       0.00000000       0.00000000          1
H         3.52982721       8.13207376       7.06356760         0.00000000       0.00000000       0.00000000          1
H         3.61474460      10.59949873       5.75632687         0.00000000       0.00000000       0.00000000          1
H         0.84488277      10.50837029       5.40440150         0.00000000       0.00000000       0.00000000          1
6
pbc=[F, F, F] list_num_par=6 energy=-1.26974174 iter=20000 frozen=false Lattice="15.00000000 0.00000000 0.00000000 0.00000000 15.00000000 0.00000000 0.00000000 0.00000000 15.00000000" energy_frozen_part=0.00000000 Properties=species:S:1:pos:R:3:velocities:R:3:Z:I:1
H         2.43556972       8.39771944       4.50644660         0.00000000       0.00000000       0.00000000          1
H         1.94087683      10.24926163       7.96124807         0.00000000       0.00000000       0.00000000          1
H         0.75881061       8.04711434       6.71322042         0.00000000       0.00000000       0.00000000          1
H         3.52902522       8.13354826       7.06356663         0.00000000       0.00000000       0.00000000          1
H         3.61763322      10.59986189       5.75447431         0.00000000       0.00000000       0.00000000          1
H         0.84742249      10.51343632       5.40413036         0.00000000       0.00000000       0.00000000          1
6
pbc=[F, F, F] list_num_par=6 energy=-1.26974174 iter=20000 frozen=false Lattice="15.00000000 0.00000000 0.00000000 0.00000000 15.00000000 0.00000000 0.00000000 0.00000000 15.00000000" energy_frozen_part=0.00000000 Properties=species:S:1:pos:R:3:velocities:R:3:Z:I:1
H         2.43753775       8.39478106       4.50623687         0.00000000       0.00000000       0.00000000          1
H         1.93694535      10.24516327       7.96080787         0.00000000       0.00000000       0.00000000          1
H         0.75965572       8.04109650       6.71166839         0.00000000       0.00000000       0.00000000          1
H         3.52943672       8.13226991       7.06418902         0.00000000       0.00000000       0.00000000          1
H         3.61482309      10.59885077       5.75538503         0.00000000       0.00000000       0.00000000          1
H         0.84504059      10.50767225       5.40285893         0.00000000       0.00000000       0.00000000          1
6
pbc=[F, F, F] list_num_par=6 energy=-1.26974174 iter=20000 frozen=false Lattice="15.00000000 0.00000000 0.00000000 0.00000000 15.00000000 0.00000000 0.00000000 0.00000000 15.00000000" energy_frozen_part=0.00000000 Properties=species:S:1:pos:R:3:velocities:R:3:Z:I:1
H         2.43558360       8.39771209       4.50644118         0.00000000       0.00000000       0.00000000          1
H         1.94086649      10.24923223       7.96124422         0.00000000       0.00000000       0.00000000          1
H         0.75879846       8.04710182       6.71318928         0.00000000       0.00000000       0.00000000          1
H         3.52900520       8.13351159       7.06356855         0.00000000       0.00000000       0.00000000          1
H         3.61764888      10.59983678       5.75448966         0.00000000       0.00000000       0.00000000          1
H         0.84743995      10.51342695       5.40412056         0.00000000       0.00000000       0.00000000          1
6
pbc=[F, F, F] list_num_par=6 energy=-1.26974174 iter=20000 frozen=false Lattice="15.00000000 0.00000000 0.00000000 0.00000000 15.00000000 0.00000000 0.00000000 0.00000000 15.00000000" energy_frozen_part=0.00000000 Properties=species:S:1:pos:R:3:velocities:R:3:Z:I:1
H         2.43723714       8.39610622       4.50599108         0.00000000       0.00000000       0.00000000          1
H         1.93787650      10.24434560       7.96188357         0.00000000       0.00000000       0.00000000          1
H         0.76013548       8.04105892       6.71178989         0.00000000       0.00000000       0.00000000          1
H         3.53004790       8.13199949       7.06339014         0.00000000       0.00000000       0.00000000          1
H         3.61497790      10.59939405       5.75608726         0.00000000       0.00000000       0.00000000          1
H         0.84506996      10.50844645       5.40447849         0.00000000       0.00000000       0.00000000          1
6
pbc=[F, F, F] list_num_par=6 energy=-1.26974174 iter=20000 frozen=false Lattice="15.00000000 0.00000000 0.00000000 0.00000000 15.00000000 0.00000000 0.00000000 0.00000000 15.00000000" energy_frozen_part=0.00000000 Properties=species:S:1:pos:R:3:velocities:R:3:Z:I:1
H         2.43555914       8.39766183       4.50634319         0.00000000       0.00000000       0.00000000          1
H         1.94080603      10.24917782       7.96114500         0.00000000       0.00000000       0.00000000          1
H         0.75869608       8.04710071       6.71304893         0.00000000       0.00000000       0.00000000          1
H         3.52890074       8.13341117       7.06350002         0.00000000       0.00000000       0.00000000          1
H         3.61766774      10.59973902       5.75444297         0.00000000       0.00000000       0.00000000          1
H         0.84746769      10.51343014       5.40398400         0.00000000       0.00000000       0.00000000          1
6
pbc=[F, F, F] list_num_par=6 energy=-1.26974174 iter=20000 frozen=false Lattice="15.00000000 0.00000000 0.00000000 0.00000000 15.00000000 0.00000000 0.00000000 0.00000000 15.00000000" energy_frozen_part=0.00000000 Properties=species:S:1:pos:R:3:velocities:R:3:Z:I:1
H         2.43558218       8.39770897       4.50643901         0.00000000       0.00000000       0.00000000          1
H         1.94087371      10.24923780       7.96124265         0.00000000       0.00000000       0.00000000          1
H         0.75880605       8.04710634       6.71320111         0.00000000       0.00000000       0.00000000          1
H         3.52901822       8.13351555       7.06356452         0.00000000       0.00000000       0.00000000          1
H         3.61764888      10.59983678       5.75448966         0.00000000       0.00000000       0.00000000          1
H         0.84744144      10.51342529       5.40411638         0.00000000       0.00000000       0.00000000          1
6
pbc=[F, F, F] list_num_par=6 energy=-1.26974174 iter=20000 frozen=false Lattice="15.00000000 0.00000000 0.00000000 0.00000000 15.00000000 0.00000000 0.00000000 0.00000000 15.00000000" energy_frozen_part=0.00000000 Properties=species:S:1:pos:R:3:velocities:R:3:Z:I:1
H         2.43752170       8.39474723       4.50625061         0.00000000       0.00000000       0.00000000          1
H         1.93692160      10.24515595       7.96081490         0.00000000       0.00000000       0.00000000          1
H         0.75964658       8.04107265       6.71168026         0.00000000       0.00000000       0.00000000          1
H         3.52942807       8.13226408       7.06420435         0.00000000       0.00000000       0.00000000          1
H         3.61479971      10.59883146       5.75537727         0.00000000       0.00000000       0.00000000          1
H         0.84501808      10.50764421       5.40285837         0.00000000       0.00000000       0.00000000          1
6
pbc=[F, F, F] list_num_par=6 energy=-1.26974174 iter=20000 frozen=false Lattice="15.00000000 0.00000000 0.00000000 0.00000000 15.00000000 0.00000000 0.00000000 0.00000000 15.00000000" energy_frozen_part=0.00000000 Properties=species:S:1:pos:R:3:velocities:R:3:Z:I:1
H         2.43560372       8.39769058       4.50633677         0.00000000       0.00000000       0.00000000          1
H         1.94071631      10.24914630       7.96115404         0.00000000       0.00000000       0.00000000          1
H         0.75868859       8.04706411       6.71298681         0.00000000       0.00000000       0.00000000          1
H         3.52887775       8.13342134       7.06352079         0.00000000       0.00000000       0.00000000          1
H         3.61763434      10.59977214       5.75450124         0.00000000       0.00000000       0.00000000          1
H         0.84744635      10.51341945       5.40396796         0.00000000       0.00000000       0.00000000          1
6
pbc=[F, F, F] list_num_par=6 energy=-1.26974174 iter=20000 frozen=false Lattice="15.00000000 0.00000000 0.00000000 0.00000000 15.00000000 0.00000000 0.00000000 0.00000000 15.00000000" energy_frozen_part=0.00000000 Properties=species:S:1:pos:R:3:velocities:R:3:Z:I:1
H         2.43753368       8.39477357       4.50624150         0.00000000       0.00000000       0.00000000          1
H         1.93694287      10.24515855       7.96080921         0.00000000       0.00000000       0.00000000          1
H         0.75967162       8.04107815       6.71168035         0.00000000       0.00000000       0.00000000          1
H         3.52945265       8.13227466       7.06419067         0.00000000       0.00000000       0.00000000          1
H         3.61481399      10.59884955       5.75537582         0.00000000       0.00000000       0.00000000          1
H         0.84503264      10.50765629       5.40286051         0.00000000       0.00000000       0.00000000          1
6
pbc=[F, F, F] list_num_par=6 energy=-1.26974174 iter=20000 frozen=false Lattice="15.00000000 0.00000000 0.00000000 0.00000000 15.00000000 0.00000000 0.00000000 0.00000000 15.00000000" energy_frozen_part=0.00000000 Properties=species:S:1:pos:R:3:velocities:R:3:Z:I:1
H         2.43727487       8.39603881       4.50606687         0.00000000       0.00000000       0.00000000          1
H         1.93777327      10.24443269       7.96186524         0.00000000       0.00000000       0.00000000          1
H         0.76008237       8.04108565       6.71181675         0.00000000       0.00000000       0.00000000          1
H         3.52997461       8.13205154       7.06352547         0.00000000       0.00000000       0.00000000          1
H         3.61496010      10.59938637       5.75611490         0.00000000       0.00000000       0.00000000          1
H         0.84506731      10.50841500       5.40440633         0.00000000       0.00000000       0.00000000          1
6
pbc=[F, F, F] list_num_par=6 energy=-1.26974174 iter=20000 frozen=false Lattice="15.00000000 0.00000000 0.00000000 0.00000000 15.00000000 0.00000000 0.00000000 0.00000000 15.00000000" energy_frozen_part=0.00000000 Properties=species:S:1:pos:R:3:velocities:R:3:Z:I:1
H         2.43752771       8.39476258       4.50624209         0.00000000       0.00000000       0.00000000          1
H         1.93694144      10.24515059       7.96081044         0.00000000       0.00000000       0.00000000          1
H         0.75965869       8.04106952       6.71167313         0.00000000       0.00000000       0.00000000          1
H         3.52944106       8.13226662       7.06418828         0.00000000       0.00000000       0.00000000          1
H         3.61480696      10.59884056       5.75537652         0.00000000       0.00000000       0.00000000          1
H         0.84502425      10.50764879       5.40286250         0.00000000       0.00000000       0.00000000          1
6
pbc=[F, F, F] list_num_par=6 energy=-1.26974174 iter=20000 frozen=false Lattice="15.00000000 0.00000000 0.00000000 0.00000000 15.00000000 0.00000000 0.00000000 0.00000000 15.00000000" energy_frozen_part=0.00000000 Properties=species:S:1:pos:R:3:velocities:R:3:Z:I:1
H         2.43724826       8.39618929       4.50596390         0.00000000       0.00000000       0.00000000          1
H         1.93768129      10.24413962       7.96198820         0.00000000       0.00000000       0.00000000          1
H         0.76013057       8.04086015       6.71170885         0.00000000       0.00000000       0.00000000          1
H         3.53002148       8.13197499       7.06336756         0.00000000       0.00000000       0.00000000          1
H         3.61479998      10.59947024       5.75624347         0.00000000       0.00000000       0.00000000          1
H         0.84490422      10.50835061       5.40458439         0.00000000       0.00000000       0.00000000          1
6
pbc=[F, F, F] list_num_par=6 energy=-1.26974174 iter=20000 frozen=false Lattice="15.00000000 0.00000000 0.00000000 0.00000000 15.00000000 0.00000000 0.00000000 0.00000000 15.00000000" energy_frozen_part=0.00000000 Properties=species:S:1:pos:R:3:velocities:R:3:Z:I:1
H         2.43724429       8.39618622       4.50597392         0.00000000       0.00000000       0.00000000          1
H         1.93767244      10.24413745       7.96199861         0.00000000       0.00000000       0.00000000          1
H         0.76012159       8.04085495       6.71171526         0.00000000       0.00000000       0.00000000          1
H         3.53001728       8.13198310       7.06338122         0.00000000       0.00000000       0.00000000          1
H         3.61479356      10.59947453       5.75625909         0.00000000       0.00000000       0.00000000          1
H         0.84489985      10.50834377       5.40458726         0.00000000       0.00000000       0.00000000          1
6
pbc=[F, F, F] list_num_par=6 energy=-1.26974174 iter=20000 frozen=false Lattice="15.00000000 0.00000000 0.00000000 0.00000000 15.00000000 0.00000000 0.00000000 0.00000000 15.00000000" energy_frozen_part=0.00000000 Properties=species:S:1:pos:R:3:velocities:R:3:Z:I:1
H         2.43558808       8.39771303       4.50643256         0.00000000       0.00000000       0.00000000          1
H         1.94085088      10.24921222       7.96124334         0.00000000       0.00000000       0.00000000          1
H         0.75879612       8.04708958       6.71317508         0.00000000       0.00000000       0.00000000          1
H         3.52900307       8.13350786       7.06355890         0.00000000       0.00000000       0.00000000          1
H         3.61763600      10.59983962       5.75449934         0.00000000       0.00000000       0.00000000          1
H         0.84743132      10.51341746       5.40410897         0.00000000       0.00000000       0.00000000          1
6
pbc=[F, F, F] list_num_par=6 energy=-1.26974174 iter=20000 frozen=false Lattice="15.00000000 0.00000000 0.00000000 0.00000000 15.00000000 0.00000000 0.00000000 0.00000000 15.00000000" energy_frozen_part=0.00000000 Properties=species:S:1:pos:R:3:velocities:R:3:Z:I:1
H         2.43725294       8.39610159       4.50599240         0.00000000       0.00000000       0.00000000          1
H         1.93787650      10.24434560       7.96188357         0.00000000       0.00000000       0.00000000          1
H         0.76014148       8.04105441       6.71179094         0.00000000       0.00000000       0.00000000          1
H         3.53004476       8.13199936       7.06339773         0.00000000       0.00000000       0.00000000          1
H         3.61498426      10.59939257       5.75608561         0.00000000       0.00000000       0.00000000          1
H         0.84507595      10.50844181       5.40448030         0.00000000       0.00000000       0.00000000          1
6
pbc=[F, F, F] list_num_par=6 energy=-1.26974174 iter=20000 frozen=false Lattice="15.00000000 0.00000000 0.00000000 0.00000000 15.00000000 0.00000000 0.00000000 0.00000000 15.00000000" energy_frozen_part=0.00000000 Properties=species:S:1:pos:R:3:velocities:R:3:Z:I:1
H         2.43725962       8.39608967       4.50601751         0.00000000       0.00000000       0.00000000          1
H         1.93787503      10.24432024       7.96191340         0.00000000       0.00000000       0.00000000          1
H         0.76012315       8.04105837       6.71179236         0.00000000       0.00000000       0.00000000          1
H         3.53002478       8.13195530       7.06343282         0.00000000       0.00000000       0.00000000          1
H         3.61501585      10.59935141       5.75614345         0.00000000       0.00000000       0.00000000          1
H         0.84510861      10.50844866       5.40449662         0.00000000       0.00000000       0.00000000          1
6
pbc=[F, F, F] list_num_par=6 energy=-1.26974174 iter=20000 frozen=false Lattice="15.00000000 0.00000000 0.00000000 0.00000000 15.00000000 0.00000000 0.00000000 0.00000000 15.00000000" energy_frozen_part=0.00000000 Properties=species:S:1:pos:R:3:velocities:R:3:Z:I:1
H         2.43720895       8.39607257       4.50605080         0.00000000       0.00000000       0.00000000          1
H         1.93787569      10.24439212       7.96190700         0.00000000       0.00000000       0.00000000          1
H         0.76007857       8.04111801       6.71184377         0.00000000       0.00000000       0.00000000          1
H         3.52998971       8.13199035       7.06346899         0.00000000       0.00000000       0.00000000          1
H         3.61500376      10.59934822       5.75611214         0.00000000       0.00000000       0.00000000          1
H         0.84509864      10.50847960       5.40448731         0.00000000       0.00000000       0.00000000          1
6
pbc=[F, F, F] list_num_par=6 energy=-1.26974174 iter=20000 frozen=false Lattice="15.00000000 0.00000000 0.00000000 0.00000000 15.00000000 0.00000000 0.00000000 0.00000000 15.00000000" energy_frozen_part=0.00000000 Properties=species:S:1:pos:R:3:velocities:R:3:Z:I:1
H         2.43558218       8.39770416       4.50642851         0.00000000       0.00000000       0.00000000          1
H         1.94085496      10.24920728       7.96124739         0.00000000       0.00000000       0.00000000          1
H         0.75879914       8.04708432       6.71317524         0.00000000       0.00000000       0.00000000          1
H         3.52900428       8.13350146       7.06355943         0.00000000       0.00000000       0.00000000          1
H         3.61764012      10.59982756       5.75449369         0.00000000       0.00000000       0.00000000          1
H         0.84743124      10.51341136       5.40411344         0.00000000       0.00000000       0.00000000          1
6
pbc=[F, F, F] list_num_par=6 energy=-1.26974174 iter=20000 frozen=false Lattice="15.00000000 0.00000000 0.00000000 0.00000000 15.00000000 0.00000000 0.00000000 0.00000000 15.00000000" energy_frozen_part=0.00000000 Properties=species:S:1:pos:R:3:velocities:R:3:Z:I:1
H         2.43724607       8.39618340       4.50596204         0.00000000       0.00000000       0.00000000          1
H         1.93768168      10.24414048       7.96198774         0.00000000       0.00000000       0.00000000          1
H         0.76012587       8.04085692       6.71170741         0.00000000       0.00000000       0.00000000          1
H         3.53002016       8.13198113       7.06336709         0.00000000       0.00000000       0.00000000          1
H         3.61480200      10.59947249       5.75624161         0.00000000       0.00000000       0.00000000          1
H         0.84490800      10.50834694       5.40458075         0.00000000       0.00000000       0.00000000          1
6
pbc=[F, F, F] list_num_par=6 energy=-1.26974174 iter=20000 frozen=false Lattice="15.00000000 0.00000000 0.00000000 0.00000000 15.00000000 0.00000000 0.00000000 0.00000000 15.00000000" energy_frozen_part=0.00000000 Properties=species:S:1:pos:R:3:velocities:R:3:Z:I:1
H         2.43559014       8.39772324       4.50642450         0.00000000       0.00000000       0.00000000          1
H         1.94084942      10.24921240       7.96124083         0.00000000       0.00000000       0.00000000          1
H         0.75880187       8.04708603       6.71316916         0.00000000       0.00000000       0.00000000          1
H         3.52900834       8.13351349       7.06355064         0.00000000       0.00000000       0.00000000          1
H         3.61762987      10.59985208       5.75449547         0.00000000       0.00000000       0.00000000          1
H         0.84742798      10.51341968       5.40411001         0.00000000       0.00000000       0.00000000          1
6
pbc=[F, F, F] list_num_par=6 energy=-1.26974174 iter=20000 frozen=false Lattice="15.00000000 0.00000000 0.00000000 0.00000000 15.00000000 0.00000000 0.00000000 0.00000000 15.00000000" energy_frozen_part=0.00000000 Properties=species:S:1:pos:R:3:velocities:R:3:Z:I:1
H         2.43750190       8.39472908       4.50624376         0.00000000       0.00000000       0.00000000          1
H         1.93692502      10.24515266       7.96079587         0.00000000       0.00000000       0.00000000          1
H         0.75964771       8.04105840       6.71169287         0.00000000       0.00000000       0.00000000          1
H         3.52942905       8.13225737       7.06418717         0.00000000       0.00000000       0.00000000          1
H         3.61478826      10.59882023       5.75534923         0.00000000       0.00000000       0.00000000          1
H         0.84500323      10.50762345       5.40285239         0.00000000       0.00000000       0.00000000          1
6
pbc=[F, F, F] list_num_par=6 energy=-1.26974174 iter=20000 frozen=false Lattice="15.00000000 0.00000000 0.00000000 0.00000000 15.00000000 0.00000000 0.00000000 0.00000000 15.00000000" energy_frozen_part=0.00000000 Properties=species:S:1:pos:R:3:velocities:R:3:Z:I:1
H         2.43725548       8.39619006       4.50598258         0.00000000       0.00000000       0.00000000          1
H         1.93766114      10.24413836       7.96200037         0.00000000       0.00000000       0.00000000          1