6
pbc=[F, F, F] list_num_par=6 energy=8.18774665 iter=9 frozen=false Lattice="15.00000000 0.00000000 0.00000000 0.00000000 15.00000000 0.00000000 0.00000000 0.00000000 15.00000000" energy_frozen_part=0.00000000 Properties=species:S:1:pos:R:3:velocities:R:3:Z:I:1
H        13.66767431      11.77072714       3.98518945         0.00000000       0.00000000       0.00000000          1
H         6.42675516       4.59567166      11.93975610         0.00000000       0.00000000       0.00000000          1
H         7.09848577       6.02515317       0.42958543         0.00000000       0.00000000       0.00000000          1
H        12.48946559       3.26116918       9.41702534         0.00000000       0.00000000       0.00000000          1
H        10.81739934       7.35360563       5.03469337         0.00000000       0.00000000       0.00000000          1
H         9.16291671       7.13363880       5.95982616         0.00000000       0.00000000       0.00000000          1
6
pbc=[F, F, F] list_num_par=6 energy=1.45868548 iter=19 frozen=false Lattice="15.00000000 0.00000000 0.00000000 0.00000000 15.00000000 0.00000000 0.00000000 0.00000000 15.00000000" energy_frozen_part=0.00000000 Properties=species:S:1:pos:R:3:velocities:R:3:Z:I:1
H         4.46366822      12.69191937       5.89478469         0.00000000       0.00000000       0.00000000          1
H        10.21357840      12.70393317      13.09972283         0.00000000       0.00000000       0.00000000          1
H         3.97240335       8.00452997       5.09135782         0.00000000       0.00000000       0.00000000          1
H        10.11206013       3.33475835      12.55311873         0.00000000       0.00000000       0.00000000          1
H         2.47808667       0.02724505       0.89109737         0.00000000       0.00000000       0.00000000          1
H         4.29881014       9.95287362       4.26175456         0.00000000       0.00000000       0.00000000          1
6
pbc=[F, F, F] list_num_par=6 energy=-0.00195687 iter=29 frozen=false Lattice="15.00000000 0.00000000 0.00000000 0.00000000 15.00000000 0.00000000 0.00000000 0.00000000 15.00000000" energy_frozen_part=0.00000000 Properties=species:S:1:pos:R:3:velocities:R:3:Z:I:1
H        10.42111807       4.10994956       2.11651028         0.00000000       0.00000000       0.00000000          1
H         7.15895440      14.22790934       0.30005598         0.00000000       0.00000000       0.00000000          1
H        12.13666406       5.10653631      12.00783052         0.00000000       0.00000000       0.00000000          1
H         9.70276009      13.35976556      12.64651671         0.00000000       0.00000000       0.00000000          1
H         6.66064174       2.56407289      12.76203267         0.00000000       0.00000000       0.00000000          1
H         0.27539643       3.43055308       3.20515420         0.00000000       0.00000000       0.00000000          1
6
pbc=[F, F, F] list_num_par=6 energy=-0.00488439 iter=39 frozen=false Lattice="15.00000000 0.00000000 0.00000000 0.00000000 15.00000000 0.00000000 0.00000000 0.00000000 15.00000000" energy_frozen_part=0.00000000 Properties=species:S:1:pos:R:3:velocities:R:3:Z:I:1
H         3.21646524      10.41702001       4.14806373         0.00000000       0.00000000       0.00000000          1
H         0.63628430      10.05188497      10.17642148         0.00000000       0.00000000       0.00000000          1
H         3.82969644       4.82999682       4.84695747         0.00000000       0.00000000       0.00000000          1
H        13.77065985       3.72447887       7.92544616         0.00000000       0.00000000       0.00000000          1
H        11.09627374      12.98249731       2.89201215         0.00000000       0.00000000       0.00000000          1
H        14.13033952       6.30990420       0.00329859         0.00000000       0.00000000       0.00000000          1
6
pbc=[F, F, F] list_num_par=6 energy=-0.00638183 iter=49 frozen=false Lattice="15.00000000 0.00000000 0.00000000 0.00000000 15.00000000 0.00000000 0.00000000 0.00000000 15.00000000" energy_frozen_part=0.00000000 Properties=species:S:1:pos:R:3:velocities:R:3:Z:I:1
H         6.60730587       9.86830685       2.29028064         0.00000000       0.00000000       0.00000000          1
H         5.63449447       8.05862160       8.65141480         0.00000000       0.00000000       0.00000000          1
H        10.21241962       4.71539597      12.01347375         0.00000000       0.00000000       0.00000000          1
H         2.17845662      14.37297566      11.10479504         0.00000000       0.00000000       0.00000000          1
H         8.70719483      12.14701274      12.56972220         0.00000000       0.00000000       0.00000000          1
H        10.52112441       2.47856634       5.88173637         0.00000000       0.00000000       0.00000000          1
6
pbc=[F, F, F] list_num_par=6 energy=-0.00879750 iter=59 frozen=false Lattice="15.00000000 0.00000000 0.00000000 0.00000000 15.00000000 0.00000000 0.00000000 0.00000000 15.00000000" energy_frozen_part=0.00000000 Properties=species:S:1:pos:R:3:velocities:R:3:Z:I:1
H        14.46939937      12.48849382       2.95916863         0.00000000       0.00000000       0.00000000          1
H         7.46314868       7.07421702       1.16505442         0.00000000       0.00000000       0.00000000          1
H        14.02561448       3.05068172       8.65027079         0.00000000       0.00000000       0.00000000          1
H        14.23344249       2.33717093      14.22434138         0.00000000       0.00000000       0.00000000          1
H         1.87878595       0.91782250       4.26570488         0.00000000       0.00000000       0.00000000          1
H         9.05884418       2.66765661      10.40283465         0.00000000       0.00000000       0.00000000          1
6
pbc=[F, F, F] list_num_par=6 energy=-0.01218041 iter=69 frozen=false Lattice="15.00000000 0.00000000 0.00000000 0.00000000 15.00000000 0.00000000 0.00000000 0.00000000 15.00000000" energy_frozen_part=0.00000000 Properties=species:S:1:pos:R:3:velocities:R:3:Z:I:1
H         9.91428549       9.16706007       9.98254752         0.00000000       0.00000000       0.00000000          1
H         2.79189448      12.03420380       8.48415667         0.00000000       0.00000000       0.00000000          1
H         3.80735494       4.56981130      10.01906594         0.00000000       0.00000000       0.00000000          1
H         2.38061977      13.91190207       4.07120257         0.00000000       0.00000000       0.00000000          1
H         5.85329409       3.64769181       1.95881278         0.00000000       0.00000000       0.00000000          1
H        10.23174095       3.79486698       6.31442664         0.00000000       0.00000000       0.00000000          1
6
pbc=[F, F, F] list_num_par=6 energy=-0.01676804 iter=79 frozen=false Lattice="15.00000000 0.00000000 0.00000000 0.00000000 15.00000000 0.00000000 0.00000000 0.00000000 15.00000000" energy_frozen_part=0.00000000 Properties=species:S:1:pos:R:3:velocities:R:3:Z:I:1
H        13.27276096       9.10546695       0.66534090         0.00000000       0.00000000       0.00000000          1
H         4.36807009       3.73599927       0.69891810         0.00000000       0.00000000       0.00000000          1
H        10.39924720      10.17684213       4.66741486         0.00000000       0.00000000       0.00000000          1
H         4.33376859       7.59711652       6.02017451         0.00000000       0.00000000       0.00000000          1
H         8.79523328       5.05317588       6.43956108         0.00000000       0.00000000       0.00000000          1
H        12.83276937       0.12453860       0.77594531         0.00000000       0.00000000       0.00000000          1
6
pbc=[F, F, F] list_num_par=6 energy=-0.01986063 iter=89 frozen=false Lattice="15.00000000 0.00000000 0.00000000 0.00000000 15.00000000 0.00000000 0.00000000 0.00000000 15.00000000" energy_frozen_part=0.00000000 Properties=species:S:1:pos:R:3:velocities:R:3:Z:I:1
H         7.21108742       1.41239269      11.08991798         0.00000000       0.00000000       0.00000000          1
H         9.36877550       5.84046495       0.45969248         0.00000000       0.00000000       0.00000000          1
H         7.81111214       3.89470942      14.54210755         0.00000000       0.00000000       0.00000000          1
H         2.85141587       0.14012556       4.46804753         0.00000000       0.00000000       0.00000000          1
H         0.02815336       8.00818406       3.54241073         0.00000000       0.00000000       0.00000000          1
H         0.62293998       0.90477066       9.39994814         0.00000000       0.00000000       0.00000000          1
6
pbc=[F, F, F] list_num_par=6 energy=-0.02519943 iter=99 frozen=false Lattice="15.00000000 0.00000000 0.00000000 0.00000000 15.00000000 0.00000000 0.00000000 0.00000000 15.00000000" energy_frozen_part=0.00000000 Properties=species:S:1:pos:R:3:velocities:R:3:Z:I:1
H         2.72342349      14.43174014      13.10967563         0.00000000       0.00000000       0.00000000          1
H         5.39473714       1.53247926       5.64863815         0.00000000       0.00000000       0.00000000          1
H         0.18746740       8.96169009       2.08845723         0.00000000       0.00000000       0.00000000          1
H        14.21361016       8.63155193       1.11402721         0.00000000       0.00000000       0.00000000          1
H         1.76408138       8.52166741      10.78467747         0.00000000       0.00000000       0.00000000          1
H        12.58764974      12.19206731       0.53807852         0.00000000       0.00000000       0.00000000          1
6
pbc=[F, F, F] list_num_par=6 energy=-0.03019827 iter=109 frozen=false Lattice="15.00000000 0.00000000 0.00000000 0.00000000 15.00000000 0.00000000 0.00000000 0.00000000 15.00000000" energy_frozen_part=0.00000000 Properties=species:S:1:pos:R:3:velocities:R:3:Z:I:1
H         8.97092201      13.01509913       7.70369730         0.00000000       0.00000000       0.00000000          1
H        14.52857321      14.66438804       7.37699854         0.00000000       0.00000000       0.00000000          1
H         4.10393783      11.62618602       4.16786004         0.00000000       0.00000000       0.00000000          1
H         8.82512528       0.17968586       0.51389339         0.00000000       0.00000000       0.00000000          1
H        11.17330461      10.57389365       4.37736798         0.00000000       0.00000000       0.00000000          1
H         0.39937085      13.41385907       5.45888121         0.00000000       0.00000000       0.00000000          1
6
pbc=[F, F, F] list_num_par=6 energy=-0.03511181 iter=119 frozen=false Lattice="15.00000000 0.00000000 0.00000000 0.00000000 15.00000000 0.00000000 0.00000000 0.00000000 15.00000000" energy_frozen_part=0.00000000 Properties=species:S:1:pos:R:3:velocities:R:3:Z:I:1
H         7.54316048       3.26613233       5.51690308         0.00000000       0.00000000       0.00000000          1
H        12.94634926       2.84721709       6.49718769         0.00000000       0.00000000       0.00000000          1
H         5.65465705      12.33176284      11.66959049         0.00000000       0.00000000       0.00000000          1
H         7.93650340      12.20102290       8.49310152         0.00000000       0.00000000       0.00000000          1
H         3.69673491      11.37380279       1.30603015         0.00000000       0.00000000       0.00000000          1
H        10.03918424      14.80561235      13.39883108         0.00000000       0.00000000       0.00000000          1
6
pbc=[F, F, F] list_num_par=6 energy=-0.03974394 iter=129 frozen=false Lattice="15.00000000 0.00000000 0.00000000 0.00000000 15.00000000 0.00000000 0.00000000 0.00000000 15.00000000" energy_frozen_part=0.00000000 Properties=species:S:1:pos:R:3:velocities:R:3:Z:I:1
H         2.50373653       9.60854329      12.26705802         0.00000000       0.00000000       0.00000000          1
H        10.48523184       7.91950030      14.47292512         0.00000000       0.00000000       0.00000000          1
H         5.52235119       1.53826467      10.44558336         0.00000000       0.00000000       0.00000000          1
H         7.95872650       3.77298815       8.70809707         0.00000000       0.00000000       0.00000000          1
H        12.68429246       8.97942598      10.01753136         0.00000000       0.00000000       0.00000000          1
H         6.61599778      11.83717427       3.26335636         0.00000000       0.00000000       0.00000000          1
6
pbc=[F, F, F] list_num_par=6 energy=-0.04365906 iter=139 frozen=false Lattice="15.00000000 0.00000000 0.00000000 0.00000000 15.00000000 0.00000000 0.00000000 0.00000000 15.00000000" energy_frozen_part=0.00000000 Properties=species:S:1:pos:R:3:velocities:R:3:Z:I:1
H         7.48039882       5.76945956       3.53897240         0.00000000       0.00000000       0.00000000          1
H        14.90886613       5.02579516      11.67338030         0.00000000       0.00000000       0.00000000          1
H         2.72692040       7.71255972       7.73464614         0.00000000       0.00000000       0.00000000          1
H         3.21548718       4.08591090       8.64149457         0.00000000       0.00000000       0.00000000          1
H         4.91004834      14.49348044       5.61658473         0.00000000       0.00000000       0.00000000          1
H         0.42133540      13.05589371       5.58234564         0.00000000       0.00000000       0.00000000          1
6
pbc=[F, F, F] list_num_par=6 energy=-0.04701164 iter=149 frozen=false Lattice="15.00000000 0.00000000 0.00000000 0.00000000 15.00000000 0.00000000 0.00000000 0.00000000 15.00000000" energy_frozen_part=0.00000000 Properties=species:S:1:pos:R:3:velocities:R:3:Z:I:1
H        10.73177079       5.77435533       9.27351283         0.00000000       0.00000000       0.00000000          1
H        11.20073938      12.35839950      11.92011679         0.00000000       0.00000000       0.00000000          1
H         1.99806294       3.61529932      11.68048744         0.00000000       0.00000000       0.00000000          1
H        12.81462886       9.96797919       0.18866518         0.00000000       0.00000000       0.00000000          1
H         4.75396319       1.45939830      10.31125577         0.00000000       0.00000000       0.00000000          1
H         1.77572294       4.73061908       7.25011484         0.00000000       0.00000000       0.00000000          1
6
pbc=[F, F, F] list_num_par=6 energy=-0.05173978 iter=159 frozen=false Lattice="15.00000000 0.00000000 0.00000000 0.00000000 15.00000000 0.00000000 0.00000000 0.00000000 15.00000000" energy_frozen_part=0.00000000 Properties=species:S:1:pos:R:3:velocities:R:3:Z:I:1
H         8.38633858       9.64034506       8.82832151         0.00000000       0.00000000       0.00000000          1
H         2.44292366       8.49055096      11.24782052         0.00000000       0.00000000       0.00000000          1
H         1.20517180       8.41853441       7.95409632         0.00000000       0.00000000       0.00000000          1
H         6.91341128      11.70778091       3.95655063         0.00000000       0.00000000       0.00000000          1
H         5.81108474       0.85818262       3.63210190         0.00000000       0.00000000       0.00000000          1
H         5.32273131      14.41334304      13.31589614         0.00000000       0.00000000       0.00000000          1
6
pbc=[F, F, F] list_num_par=6 energy=-0.05762970 iter=169 frozen=false Lattice="15.00000000 0.00000000 0.00000000 0.00000000 15.00000000 0.00000000 0.00000000 0.00000000 15.00000000" energy_frozen_part=0.00000000 Properties=species:S:1:pos:R:3:velocities:R:3:Z:I:1
H        13.12029643       8.23061585      14.57835661         0.00000000       0.00000000       0.00000000          1
H         7.06326834       7.84816894       6.21748184         0.00000000       0.00000000       0.00000000          1
H        12.22489985       4.59076987       4.85119130         0.00000000       0.00000000       0.00000000          1
H         4.50537378      10.61172284       9.93635023         0.00000000       0.00000000       0.00000000          1
H         4.24131244       0.21046766       1.45882945         0.00000000       0.00000000       0.00000000          1
H         4.79130490       3.50542799       0.69360740         0.00000000       0.00000000       0.00000000          1
6
pbc=[F, F, F] list_num_par=6 energy=-0.06181695 iter=179 frozen=false Lattice="15.00000000 0.00000000 0.00000000 0.00000000 15.00000000 0.00000000 0.00000000 0.00000000 15.00000000" energy_frozen_part=0.00000000 Properties=species:S:1:pos:R:3:velocities:R:3:Z:I:1
H        10.89227244       3.77847194       4.87002808         0.00000000       0.00000000       0.00000000          1
H         9.66314007       1.02287974      12.40917122         0.00000000       0.00000000       0.00000000          1
H         3.04658292       7.45519239       5.91587791         0.00000000       0.00000000       0.00000000          1
H         0.38362373       4.92980029      11.71644601         0.00000000       0.00000000       0.00000000          1
H        12.16369050       8.01465831       8.97140400         0.00000000       0.00000000       0.00000000          1
H         3.91386131       5.26980011       6.97193320         0.00000000       0.00000000       0.00000000          1
6
pbc=[F, F, F] list_num_par=6 energy=-0.06743441 iter=189 frozen=false Lattice="15.00000000 0.00000000 0.00000000 0.00000000 15.00000000 0.00000000 0.00000000 0.00000000 15.00000000" energy_frozen_part=0.00000000 Properties=species:S:1:pos:R:3:velocities:R:3:Z:I:1
H         2.10415979       8.56420708       8.04300880         0.00000000       0.00000000       0.00000000          1
H         3.45239380       2.12611203      10.37446578         0.00000000       0.00000000       0.00000000          1
H         9.62870898       6.12018115      11.02755968         0.00000000       0.00000000       0.00000000          1
H        10.23246912       0.29403258      11.64807350         0.00000000       0.00000000       0.00000000          1
H         3.79734651       2.09783282      12.93905654         0.00000000       0.00000000       0.00000000          1
H         8.93841284       9.37949566       4.32566683         0.00000000       0.00000000       0.00000000          1
6
pbc=[F, F, F] list_num_par=6 energy=-0.07208897 iter=199 frozen=false Lattice="15.00000000 0.00000000 0.00000000 0.00000000 15.00000000 0.00000000 0.00000000 0.00000000 15.00000000" energy_frozen_part=0.00000000 Properties=species:S:1:pos:R:3:velocities:R:3:Z:I:1
H        12.93139346       5.51120449       5.95078598         0.00000000       0.00000000       0.00000000          1
H         9.67601045       2.44451800       2.54613715         0.00000000       0.00000000       0.00000000          1
H        11.48348634      10.45232486      12.04115199         0.00000000       0.00000000       0.00000000          1
H        13.66986273       6.84476502       8.94298259         0.00000000       0.00000000       0.00000000          1
H         7.53403467       6.75669289       0.39176160         0.00000000       0.00000000       0.00000000          1
H         6.74158717       7.12455276      10.55045442         0.00000000       0.00000000       0.00000000          1
6
pbc=[F, F, F] list_num_par=6 energy=-0.07697208 iter=209 frozen=false Lattice="15.00000000 0.00000000 0.00000000 0.00000000 15.00000000 0.00000000 0.00000000 0.00000000 15.00000000" energy_frozen_part=0.00000000 Properties=species:S:1:pos:R:3:velocities:R:3:Z:I:1
H         8.79186970       3.97217497      13.39514084         0.00000000       0.00000000       0.00000000          1
H         3.84337420       5.42879388       4.42049943         0.00000000       0.00000000       0.00000000          1
H         4.49217116      12.01626123       9.90721963         0.00000000       0.00000000       0.00000000          1
H         2.76138598      11.29645495       6.43978527         0.00000000       0.00000000       0.00000000          1
H         7.70576177       6.71224501       9.23081231         0.00000000       0.00000000       0.00000000          1
H         5.85049656       9.73292407      12.52490842         0.00000000       0.00000000       0.00000000          1
6
pbc=[F, F, F] list_num_par=6 energy=-0.08229104 iter=219 frozen=false Lattice="15.00000000 0.00000000 0.00000000 0.00000000 15.00000000 0.00000000 0.00000000 0.00000000 15.00000000" energy_frozen_part=0.00000000 Properties=species:S:1:pos:R:3:velocities:R:3:Z:I:1
H         7.81273555       2.98189105      14.42393721         0.00000000       0.00000000       0.00000000          1
H         1.97806166      11.86328520       2.27795175         0.00000000       0.00000000       0.00000000          1
H         3.09947737      13.17668760      11.91677994         0.00000000       0.00000000       0.00000000          1
H         8.46803407      11.51582399       4.29951628         0.00000000       0.00000000       0.00000000          1
H         0.35447169       7.09725192       9.78481528         0.00000000       0.00000000       0.00000000          1
H         5.42500938      11.13301026      11.68488643         0.00000000       0.00000000       0.00000000          1
6
pbc=[F, F, F] list_num_par=6 energy=-0.08711471 iter=229 frozen=false Lattice="15.00000000 0.00000000 0.00000000 0.00000000 15.00000000 0.00000000 0.00000000 0.00000000 15.00000000" energy_frozen_part=0.00000000 Properties=species:S:1:pos:R:3:velocities:R:3:Z:I:1
H        13.84837277      14.57176716       9.65261657         0.00000000       0.00000000       0.00000000          1
H        13.77731548       8.36318362       8.17837684         0.00000000       0.00000000       0.00000000          1
H         6.20555688      10.30630832       3.87250390         0.00000000       0.00000000       0.00000000          1
H         4.10507963       9.17994642       5.81309611         0.00000000       0.00000000       0.00000000          1
H         0.30228996       2.74001660       1.09632545         0.00000000       0.00000000       0.00000000          1
H         0.64941555       0.69103442       6.21578306         0.00000000       0.00000000       0.00000000          1
6
pbc=[F, F, F] list_num_par=6 energy=-0.09411408 iter=239 frozen=false Lattice="15.00000000 0.00000000 0.00000000 0.00000000 15.00000000 0.00000000 0.00000000 0.00000000 15.00000000" energy_frozen_part=0.00000000 Properties=species:S:1:pos:R:3:velocities:R:3:Z:I:1
H        13.41541872       4.63258834       1.98487765         0.00000000       0.00000000       0.00000000          1
H        10.65283183       3.75644750       1.29584273         0.00000000       0.00000000       0.00000000          1
H         3.25058768      12.70367888      11.83435364         0.00000000       0.00000000       0.00000000          1
H         8.14154576      10.90123564       4.89410305         0.00000000       0.00000000       0.00000000          1
H        13.36075401      11.40256237      11.26143168         0.00000000       0.00000000       0.00000000          1
H        10.54640348       6.41131981      12.04044262         0.00000000       0.00000000       0.00000000          1
6
pbc=[F, F, F] list_num_par=6 energy=-0.09987194 iter=249 frozen=false Lattice="15.00000000 0.00000000 0.00000000 0.00000000 15.00000000 0.00000000 0.00000000 0.00000000 15.00000000" energy_frozen_part=0.00000000 Properties=species:S:1:pos:R:3:velocities:R:3:Z:I:1
H        13.91939061       8.64944867       2.18864370         0.00000000       0.00000000       0.00000000          1
H         4.72799828       4.94536787       0.90795171         0.00000000       0.00000000       0.00000000          1
H        10.38809011       9.20891839       5.46239080         0.00000000       0.00000000       0.00000000          1
H         4.96748255       6.53531381       7.23069505         0.00000000       0.00000000       0.00000000          1
H         9.43254420       6.38100684       6.38837775         0.00000000       0.00000000       0.00000000          1
H        13.91081534       0.33799520       1.00801393         0.00000000       0.00000000       0.00000000          1
6
pbc=[F, F, F] list_num_par=6 energy=-0.10187781 iter=259 frozen=false Lattice="15.00000000 0.00000000 0.00000000 0.00000000 15.00000000 0.00000000 0.00000000 0.00000000 15.00000000" energy_frozen_part=0.00000000 Properties=species:S:1:pos:R:3:velocities:R:3:Z:I:1
H         0.43952830      10.75582880       5.08596097         0.00000000       0.00000000       0.00000000          1
H         5.33443396      14.64502864       1.94756388         0.00000000       0.00000000       0.00000000          1
H         1.93118202      12.04615638       2.76908009         0.00000000       0.00000000       0.00000000          1
H         8.36566093       9.28962235       3.16181487         0.00000000       0.00000000       0.00000000          1
H         7.84624245       1.47010202      13.40839345         0.00000000       0.00000000       0.00000000          1
H         7.92673109      11.88024275      13.47664580         0.00000000       0.00000000       0.00000000          1
6
pbc=[F, F, F] list_num_par=6 energy=-0.10337474 iter=269 frozen=false Lattice="15.00000000 0.00000000 0.00000000 0.00000000 15.00000000 0.00000000 0.00000000 0.00000000 15.00000000" energy_frozen_part=0.00000000 Properties=species:S:1:pos:R:3:velocities:R:3:Z:I:1
H        14.04310923       2.37201281       5.46286008         0.00000000       0.00000000       0.00000000          1
H         1.78627997       2.09820282      11.53062080         0.00000000       0.00000000       0.00000000          1
H         6.43818944       5.75038847      11.36766391         0.00000000       0.00000000       0.00000000          1
H        10.36679103       8.47138665       3.47340323         0.00000000       0.00000000       0.00000000          1
H         0.20066168       4.12198637      12.77089433         0.00000000       0.00000000       0.00000000          1
H        14.59719817      14.21197860       2.61963569         0.00000000       0.00000000       0.00000000          1
6
pbc=[F, F, F] list_num_par=6 energy=-0.10633533 iter=279 frozen=false Lattice="15.00000000 0.00000000 0.00000000 0.00000000 15.00000000 0.00000000 0.00000000 0.00000000 15.00000000" energy_frozen_part=0.00000000 Properties=species:S:1:pos:R:3:velocities:R:3:Z:I:1
H        14.61493064       6.56442164       4.16981299         0.00000000       0.00000000       0.00000000          1
H        12.15526176       3.76630181       7.17405340         0.00000000       0.00000000       0.00000000          1
H         3.43614835      13.96546132       1.59341466         0.00000000       0.00000000       0.00000000          1
H         3.50677786       5.61127577       9.48910335         0.00000000       0.00000000       0.00000000          1
H         3.52558254       0.91152239       1.22875163         0.00000000       0.00000000       0.00000000          1
H        13.03390628       8.33301276       2.51871710         0.00000000       0.00000000       0.00000000          1
6
pbc=[F, F, F] list_num_par=6 energy=-0.11060500 iter=289 frozen=false Lattice="15.00000000 0.00000000 0.00000000 0.00000000 15.00000000 0.00000000 0.00000000 0.00000000 15.00000000" energy_frozen_part=0.00000000 Properties=species:S:1:pos:R:3:velocities:R:3:Z:I:1
H         1.95644788       2.58207239       3.41271842         0.00000000       0.00000000       0.00000000          1
H         5.42760081       2.63479874       6.38489255         0.00000000       0.00000000       0.00000000          1
H        14.38807064      12.00829774      13.46352005         0.00000000       0.00000000       0.00000000          1
H         0.60560203      14.27076043       2.59027871         0.00000000       0.00000000       0.00000000          1
H        11.13487881       1.59228985       9.50154785         0.00000000       0.00000000       0.00000000          1
H         2.02976859      14.48223904       5.04772243         0.00000000       0.00000000       0.00000000          1
6
pbc=[F, F, F] list_num_par=6 energy=-0.11301493 iter=299 frozen=false Lattice="15.00000000 0.00000000 0.00000000 0.00000000 15.00000000 0.00000000 0.00000000 0.00000000 15.00000000" energy_frozen_part=0.00000000 Properties=species:S:1:pos:R:3:velocities:R:3:Z:I:1
H         0.38076542       7.56500871       7.10180117         0.00000000       0.00000000       0.00000000          1
H         7.33789035       3.05814487       7.09174572         0.00000000       0.00000000       0.00000000          1
H        11.72568184       7.66839800       3.08430510         0.00000000       0.00000000       0.00000000          1
H         1.30268758       5.71870084       2.72740191         0.00000000       0.00000000       0.00000000          1
H         7.71071665      11.28604283       6.70841716         0.00000000       0.00000000       0.00000000          1
H         8.33689801       5.73259655       6.40540398         0.00000000       0.00000000       0.00000000          1
6
pbc=[F, F, F] list_num_par=6 energy=-0.11763294 iter=309 frozen=false Lattice="15.00000000 0.00000000 0.00000000 0.00000000 15.00000000 0.00000000 0.00000000 0.00000000 15.00000000" energy_frozen_part=0.00000000 Properties=species:S:1:pos:R:3:velocities:R:3:Z:I:1
H         3.05804198       9.30563149      10.17236662         0.00000000       0.00000000       0.00000000          1
H        11.34609626       7.82231586       2.64928859         0.00000000       0.00000000       0.00000000          1