6
pbc=[F, F, F] list_num_par=6 frozen=false iter=9 energy=3.94731052 Lattice="15.00000000 0.00000000 0.00000000 0.00000000 15.00000000 0.00000000 0.00000000 0.00000000 15.00000000" energy_frozen_part=0.00000000 Properties=species:S:1:pos:R:3:velocities:R:3:Z:I:1
H        13.43569908      13.53989717       3.90628596         0.00000000       0.00000000       0.00000000          1
H         0.34087467       3.10732065      13.90702739         0.00000000       0.00000000       0.00000000          1
H        12.94884716      13.65965699       5.85302301         0.00000000       0.00000000       0.00000000          1
H         3.16671309       1.13127787      14.49088374         0.00000000       0.00000000       0.00000000          1
H         8.51736902       9.07921745       1.25183905         0.00000000       0.00000000       0.00000000          1
H         1.74801977      14.10309328       8.59154174         0.00000000       0.00000000       0.00000000          1
6
pbc=[F, F, F] list_num_par=6 frozen=false iter=19 energy=0.38574525 Lattice="15.00000000 0.00000000 0.00000000 0.00000000 15.00000000 0.00000000 0.00000000 0.00000000 15.00000000" energy_frozen_part=0.00000000 Properties=species:S:1:pos:R:3:velocities:R:3:Z:I:1
H         5.03275847      10.29623564       0.86927083         0.00000000       0.00000000       0.00000000          1
H        14.83445553       5.70518380      12.96663870         0.00000000       0.00000000       0.00000000          1
H         5.46227148      12.90248067      11.63175144         0.00000000       0.00000000       0.00000000          1
H        14.57829250       0.96484190       3.18822565         0.00000000       0.00000000       0.00000000          1
H         2.49164701       5.32644052      12.59940535         0.00000000       0.00000000       0.00000000          1
H        12.70611181       4.95244260      13.46145632         0.00000000       0.00000000       0.00000000          1
6
pbc=[F, F, F] list_num_par=6 frozen=false iter=29 energy=-0.00339570 Lattice="15.00000000 0.00000000 0.00000000 0.00000000 15.00000000 0.00000000 0.00000000 0.00000000 15.00000000" energy_frozen_part=0.00000000 Properties=species:S:1:pos:R:3:velocities:R:3:Z:I:1
H        13.75847116       5.04579554       1.99604756         0.00000000       0.00000000       0.00000000          1
H         3.97007206       7.12386401       6.67204086         0.00000000       0.00000000       0.00000000          1
H         7.71624274      12.12778207       7.99070042         0.00000000       0.00000000       0.00000000          1
H        11.17907513       0.08159906       8.92637565         0.00000000       0.00000000       0.00000000          1
H         8.62792321       7.88807266      13.73082413         0.00000000       0.00000000       0.00000000          1
H         9.74282329      10.13407189       0.08455739         0.00000000       0.00000000       0.00000000          1
6
pbc=[F, F, F] list_num_par=6 frozen=false iter=39 energy=-0.00617790 Lattice="15.00000000 0.00000000 0.00000000 0.00000000 15.00000000 0.00000000 0.00000000 0.00000000 15.00000000" energy_frozen_part=0.00000000 Properties=species:S:1:pos:R:3:velocities:R:3:Z:I:1
H         8.41376197       2.10483603      12.15144442         0.00000000       0.00000000       0.00000000          1
H         2.72909854       0.69791118       1.24009349         0.00000000       0.00000000       0.00000000          1
H        10.81772591      12.82456216       8.12959634         0.00000000       0.00000000       0.00000000          1
H         4.10059886      12.36218552      10.54638048         0.00000000       0.00000000       0.00000000          1
H         8.65223662       2.92142906       3.42334160         0.00000000       0.00000000       0.00000000          1
H        12.26515565       1.26195070       7.80142431         0.00000000       0.00000000       0.00000000          1
6
pbc=[F, F, F] list_num_par=6 frozen=false iter=49 energy=-0.01017929 Lattice="15.00000000 0.00000000 0.00000000 0.00000000 15.00000000 0.00000000 0.00000000 0.00000000 15.00000000" energy_frozen_part=0.00000000 Properties=species:S:1:pos:R:3:velocities:R:3:Z:I:1
H         0.94659091      14.84366117       6.75221230         0.00000000       0.00000000       0.00000000          1
H        13.42494690      12.22409493       8.77385560         0.00000000       0.00000000       0.00000000          1
H         8.01545305       2.50971930      13.15571370         0.00000000       0.00000000       0.00000000          1
H        10.69169353       8.32642733       9.75840311         0.00000000       0.00000000       0.00000000          1
H         6.10250719      11.37028869       5.53123737         0.00000000       0.00000000       0.00000000          1
H        14.70231698       1.55060769       0.92030294         0.00000000       0.00000000       0.00000000          1
6
pbc=[F, F, F] list_num_par=6 frozen=false iter=59 energy=-0.01402689 Lattice="15.00000000 0.00000000 0.00000000 0.00000000 15.00000000 0.00000000 0.00000000 0.00000000 15.00000000" energy_frozen_part=0.00000000 Properties=species:S:1:pos:R:3:velocities:R:3:Z:I:1
H        11.87635187       6.30172276      13.24046471         0.00000000       0.00000000       0.00000000          1
H         4.56642813      14.00873335       3.13625173         0.00000000       0.00000000       0.00000000          1
H         7.34470929       7.61432877      14.91946306         0.00000000       0.00000000       0.00000000          1
H        10.02266207       7.47627721       6.97394021         0.00000000       0.00000000       0.00000000          1
H         9.46104058      10.90607449       1.73598024         0.00000000       0.00000000       0.00000000          1
H         4.95037717       6.68250378       3.07909780         0.00000000       0.00000000       0.00000000          1
6
pbc=[F, F, F] list_num_par=6 frozen=false iter=69 energy=-0.01734814 Lattice="15.00000000 0.00000000 0.00000000 0.00000000 15.00000000 0.00000000 0.00000000 0.00000000 15.00000000" energy_frozen_part=0.00000000 Properties=species:S:1:pos:R:3:velocities:R:3:Z:I:1
H         8.01913217      12.56654819       8.42590795         0.00000000       0.00000000       0.00000000          1
H        12.17839131       2.16114012      10.09923339         0.00000000       0.00000000       0.00000000          1
H         7.42449731       5.10874867      12.06840198         0.00000000       0.00000000       0.00000000          1
H         1.50238735       6.18905268       6.79740606         0.00000000       0.00000000       0.00000000          1
H         3.43095385      13.88264513       9.52174525         0.00000000       0.00000000       0.00000000          1
H         6.04745300       2.25838046       7.92352235         0.00000000       0.00000000       0.00000000          1
6
pbc=[F, F, F] list_num_par=6 frozen=false iter=79 energy=-0.02251825 Lattice="15.00000000 0.00000000 0.00000000 0.00000000 15.00000000 0.00000000 0.00000000 0.00000000 15.00000000" energy_frozen_part=0.00000000 Properties=species:S:1:pos:R:3:velocities:R:3:Z:I:1
H        14.23273079       5.38436134       4.56462142         0.00000000       0.00000000       0.00000000          1
H        10.41890171       6.62502406       1.99625606         0.00000000       0.00000000       0.00000000          1
H        13.66825805       5.72823872      11.48460803         0.00000000       0.00000000       0.00000000          1
H        13.46632827       2.15727046      14.14043371         0.00000000       0.00000000       0.00000000          1
H         3.91432748       2.81768253      11.30067285         0.00000000       0.00000000       0.00000000          1
H         6.95332266       1.83500642       0.08340056         0.00000000       0.00000000       0.00000000          1
6
pbc=[F, F, F] list_num_par=6 frozen=false iter=89 energy=-0.02664423 Lattice="15.00000000 0.00000000 0.00000000 0.00000000 15.00000000 0.00000000 0.00000000 0.00000000 15.00000000" energy_frozen_part=0.00000000 Properties=species:S:1:pos:R:3:velocities:R:3:Z:I:1
H        11.19566271       8.55529623       0.96052597         0.00000000       0.00000000       0.00000000          1
H        14.40188927      13.11030350       7.33417649         0.00000000       0.00000000       0.00000000          1
H         2.47207939       5.80402598       2.80908095         0.00000000       0.00000000       0.00000000          1
H         1.94332835       7.16896700       6.62562826         0.00000000       0.00000000       0.00000000          1
H         7.95967940      10.67505355      14.82262895         0.00000000       0.00000000       0.00000000          1
H         8.86644254       4.12080223       0.61836478         0.00000000       0.00000000       0.00000000          1
6
pbc=[F, F, F] list_num_par=6 frozen=false iter=99 energy=-0.03008148 Lattice="15.00000000 0.00000000 0.00000000 0.00000000 15.00000000 0.00000000 0.00000000 0.00000000 15.00000000" energy_frozen_part=0.00000000 Properties=species:S:1:pos:R:3:velocities:R:3:Z:I:1
H         6.96852814       6.10136854       2.19035158         0.00000000       0.00000000       0.00000000          1
H         5.06765050       5.29811347       6.71826630         0.00000000       0.00000000       0.00000000          1
H        12.15535966       4.74343130      12.21276205         0.00000000       0.00000000       0.00000000          1
H         8.52758155       3.64580501       9.39735323         0.00000000       0.00000000       0.00000000          1
H        13.40017742       0.50528448       4.14217134         0.00000000       0.00000000       0.00000000          1
H         4.72633746      10.63862900       5.89530086         0.00000000       0.00000000       0.00000000          1
6
pbc=[F, F, F] list_num_par=6 frozen=false iter=109 energy=-0.03452853 Lattice="15.00000000 0.00000000 0.00000000 0.00000000 15.00000000 0.00000000 0.00000000 0.00000000 15.00000000" energy_frozen_part=0.00000000 Properties=species:S:1:pos:R:3:velocities:R:3:Z:I:1
H         7.21624979       2.89075677       1.71444277         0.00000000       0.00000000       0.00000000          1
H        11.04556823       7.59579279       3.77796394         0.00000000       0.00000000       0.00000000          1
H         7.70689544       3.03554251       4.18120320         0.00000000       0.00000000       0.00000000          1
H         2.74351012       5.71098544       8.66851643         0.00000000       0.00000000       0.00000000          1
H        14.65980432       7.79363393       6.49716759         0.00000000       0.00000000       0.00000000          1
H         5.27977815      10.82845681       2.46419012         0.00000000       0.00000000       0.00000000          1
6
pbc=[F, F, F] list_num_par=6 frozen=false iter=119 energy=-0.03941513 Lattice="15.00000000 0.00000000 0.00000000 0.00000000 15.00000000 0.00000000 0.00000000 0.00000000 15.00000000" energy_frozen_part=0.00000000 Properties=species:S:1:pos:R:3:velocities:R:3:Z:I:1
H        10.49644660       7.57837936       3.44478911         0.00000000       0.00000000       0.00000000          1
H         0.85605211       5.70039886       6.71948241         0.00000000       0.00000000       0.00000000          1
H        14.96873952       9.31331828       4.01129928         0.00000000       0.00000000       0.00000000          1
H         6.82856278      10.12568053      14.07697979         0.00000000       0.00000000       0.00000000          1
H         1.34911093       4.73611444      10.37536973         0.00000000       0.00000000       0.00000000          1
H        11.80895939       7.84301102       9.97688021         0.00000000       0.00000000       0.00000000          1
6
pbc=[F, F, F] list_num_par=6 frozen=false iter=129 energy=-0.04633198 Lattice="15.00000000 0.00000000 0.00000000 0.00000000 15.00000000 0.00000000 0.00000000 0.00000000 15.00000000" energy_frozen_part=0.00000000 Properties=species:S:1:pos:R:3:velocities:R:3:Z:I:1
H         5.24434805       1.51663472      11.32982648         0.00000000       0.00000000       0.00000000          1
H        11.31215454      12.57590727       4.94427901         0.00000000       0.00000000       0.00000000          1
H         8.50576493       3.74748053      11.05871780         0.00000000       0.00000000       0.00000000          1
H         0.01065938       0.36174385       0.45532785         0.00000000       0.00000000       0.00000000          1
H        14.95470799      11.70231087       6.60632439         0.00000000       0.00000000       0.00000000          1
H         5.24724141       8.46590005      10.27626700         0.00000000       0.00000000       0.00000000          1
6
pbc=[F, F, F] list_num_par=6 frozen=false iter=139 energy=-0.05144603 Lattice="15.00000000 0.00000000 0.00000000 0.00000000 15.00000000 0.00000000 0.00000000 0.00000000 15.00000000" energy_frozen_part=0.00000000 Properties=species:S:1:pos:R:3:velocities:R:3:Z:I:1
H        13.17942223       3.12275214       8.17341102         0.00000000       0.00000000       0.00000000          1
H         6.20406136      10.44267378       2.09292210         0.00000000       0.00000000       0.00000000          1
H        12.85131280      11.12354142       3.03823571         0.00000000       0.00000000       0.00000000          1
H        12.14048025      10.70540052      12.31189462         0.00000000       0.00000000       0.00000000          1
H        13.84098733      12.90471481       8.40040255         0.00000000       0.00000000       0.00000000          1
H        13.29521333       8.07940570      14.49871570         0.00000000       0.00000000       0.00000000          1
6
pbc=[F, F, F] list_num_par=6 frozen=false iter=149 energy=-0.05407704 Lattice="15.00000000 0.00000000 0.00000000 0.00000000 15.00000000 0.00000000 0.00000000 0.00000000 15.00000000" energy_frozen_part=0.00000000 Properties=species:S:1:pos:R:3:velocities:R:3:Z:I:1
H         3.10829018      14.22867202       7.93844830         0.00000000       0.00000000       0.00000000          1
H         6.13409943       6.67778685      12.37210221         0.00000000       0.00000000       0.00000000          1
H         2.46986935       4.48466792       9.97947571         0.00000000       0.00000000       0.00000000          1
H         5.27943743       6.07493620       4.86168346         0.00000000       0.00000000       0.00000000          1
H         4.11790932      12.88450708      14.29586725         0.00000000       0.00000000       0.00000000          1
H         4.44558641       8.58068276       9.38475986         0.00000000       0.00000000       0.00000000          1
6
pbc=[F, F, F] list_num_par=6 frozen=false iter=159 energy=-0.05995637 Lattice="15.00000000 0.00000000 0.00000000 0.00000000 15.00000000 0.00000000 0.00000000 0.00000000 15.00000000" energy_frozen_part=0.00000000 Properties=species:S:1:pos:R:3:velocities:R:3:Z:I:1
H         7.39733249       4.66236141       8.56213352         0.00000000       0.00000000       0.00000000          1
H         4.60896132      13.13552066       1.09315915         0.00000000       0.00000000       0.00000000          1
H        10.40619173       2.00147591       7.74135945         0.00000000       0.00000000       0.00000000          1
H         2.15584840       0.81571858       3.33072213         0.00000000       0.00000000       0.00000000          1
H        13.61706067      11.62694809       4.15560926         0.00000000       0.00000000       0.00000000          1
H         4.05469924       0.61272682       6.45354123         0.00000000       0.00000000       0.00000000          1
6
pbc=[F, F, F] list_num_par=6 frozen=false iter=169 energy=-0.06481674 Lattice="15.00000000 0.00000000 0.00000000 0.00000000 15.00000000 0.00000000 0.00000000 0.00000000 15.00000000" energy_frozen_part=0.00000000 Properties=species:S:1:pos:R:3:velocities:R:3:Z:I:1
H        11.39450798      13.83057281      14.89173622         0.00000000       0.00000000       0.00000000          1
H         6.71405612       1.10382471      14.99310594         0.00000000       0.00000000       0.00000000          1
H        10.96634517       5.65267226       8.22900831         0.00000000       0.00000000       0.00000000          1
H         2.03020879       0.65096333       7.09044579         0.00000000       0.00000000       0.00000000          1
H        13.76257437       2.16467572       6.54920264         0.00000000       0.00000000       0.00000000          1
H         4.77484240       2.59783369       6.98872159         0.00000000       0.00000000       0.00000000          1
6
pbc=[F, F, F] list_num_par=6 frozen=false iter=179 energy=-0.06974536 Lattice="15.00000000 0.00000000 0.00000000 0.00000000 15.00000000 0.00000000 0.00000000 0.00000000 15.00000000" energy_frozen_part=0.00000000 Properties=species:S:1:pos:R:3:velocities:R:3:Z:I:1
H        13.44355118      10.17476639       8.37454544         0.00000000       0.00000000       0.00000000          1
H         6.84663478       3.79287182      11.74128160         0.00000000       0.00000000       0.00000000          1
H        13.30033911       7.68448129       4.60843895         0.00000000       0.00000000       0.00000000          1
H         5.01345946       2.85995983       9.07764021         0.00000000       0.00000000       0.00000000          1
H         2.85850494      14.89080593       9.58585148         0.00000000       0.00000000       0.00000000          1
H         0.95159608       1.22379480      13.32755211         0.00000000       0.00000000       0.00000000          1
6
pbc=[F, F, F] list_num_par=6 frozen=false iter=189 energy=-0.07716965 Lattice="15.00000000 0.00000000 0.00000000 0.00000000 15.00000000 0.00000000 0.00000000 0.00000000 15.00000000" energy_frozen_part=0.00000000 Properties=species:S:1:pos:R:3:velocities:R:3:Z:I:1
H         5.14748832      10.76171126       8.20221820         0.00000000       0.00000000       0.00000000          1
H         3.42653400      10.37625111       6.30825036         0.00000000       0.00000000       0.00000000          1
H        12.27183389       7.32839630       6.14261849         0.00000000       0.00000000       0.00000000          1
H         4.74868109      10.83870715      13.21821388         0.00000000       0.00000000       0.00000000          1
H         4.42032195      12.05677569       1.98141031         0.00000000       0.00000000       0.00000000          1
H         1.11867864       0.53114257      14.92489307         0.00000000       0.00000000       0.00000000          1
6
pbc=[F, F, F] list_num_par=6 frozen=false iter=199 energy=-0.08403914 Lattice="15.00000000 0.00000000 0.00000000 0.00000000 15.00000000 0.00000000 0.00000000 0.00000000 15.00000000" energy_frozen_part=0.00000000 Properties=species:S:1:pos:R:3:velocities:R:3:Z:I:1
H         7.16849327       8.61342736      14.57906685         0.00000000       0.00000000       0.00000000          1
H         9.28698199      11.01427158       7.96442132         0.00000000       0.00000000       0.00000000          1
H        13.20017229       9.84297777      14.09836099         0.00000000       0.00000000       0.00000000          1
H        13.33186694       0.48749824       4.27291329         0.00000000       0.00000000       0.00000000          1
H         9.81642005       6.71688189       8.56795292         0.00000000       0.00000000       0.00000000          1
H        12.61248975       7.87213483       7.10267865         0.00000000       0.00000000       0.00000000          1
6
pbc=[F, F, F] list_num_par=6 frozen=false iter=209 energy=-0.08783834 Lattice="15.00000000 0.00000000 0.00000000 0.00000000 15.00000000 0.00000000 0.00000000 0.00000000 15.00000000" energy_frozen_part=0.00000000 Properties=species:S:1:pos:R:3:velocities:R:3:Z:I:1
H         6.77320067      10.26097111      12.95549998         0.00000000       0.00000000       0.00000000          1
H         6.51322251       7.04115123       7.97780114         0.00000000       0.00000000       0.00000000          1
H         6.88137325       5.41634191      12.67197974         0.00000000       0.00000000       0.00000000          1
H         5.44633152       2.39669323       1.60608681         0.00000000       0.00000000       0.00000000          1
H         6.81963803       9.31757552       2.75780681         0.00000000       0.00000000       0.00000000          1
H         9.56225059       7.99868838      13.48611108         0.00000000       0.00000000       0.00000000          1
6
pbc=[F, F, F] list_num_par=6 frozen=false iter=219 energy=-0.09103830 Lattice="15.00000000 0.00000000 0.00000000 0.00000000 15.00000000 0.00000000 0.00000000 0.00000000 15.00000000" energy_frozen_part=0.00000000 Properties=species:S:1:pos:R:3:velocities:R:3:Z:I:1
H         6.55330747       6.61393042      10.73350348         0.00000000       0.00000000       0.00000000          1
H        10.93462494       6.79766134      10.22368182         0.00000000       0.00000000       0.00000000          1
H         2.56165601       7.03295966       5.78686103         0.00000000       0.00000000       0.00000000          1
H         4.67299582       1.78089770       4.65039079         0.00000000       0.00000000       0.00000000          1
H         7.95639476       9.93299781       8.09679443         0.00000000       0.00000000       0.00000000          1
H         3.54576416       9.96055137       7.72657080         0.00000000       0.00000000       0.00000000          1
6
pbc=[F, F, F] list_num_par=6 frozen=false iter=229 energy=-0.09498107 Lattice="15.00000000 0.00000000 0.00000000 0.00000000 15.00000000 0.00000000 0.00000000 0.00000000 15.00000000" energy_frozen_part=0.00000000 Properties=species:S:1:pos:R:3:velocities:R:3:Z:I:1
H         0.66896710       6.71264857       9.13003808         0.00000000       0.00000000       0.00000000          1
H         9.65265259       5.71867493       7.87602468         0.00000000       0.00000000       0.00000000          1
H        10.16893051      10.64345442      11.53018745         0.00000000       0.00000000       0.00000000          1
H         7.13664316       0.39472710       7.30055719         0.00000000       0.00000000       0.00000000          1
H         1.07204555       7.70926215       6.34873104         0.00000000       0.00000000       0.00000000          1
H         5.17855921      10.87828482       0.32060103         0.00000000       0.00000000       0.00000000          1
6
pbc=[F, F, F] list_num_par=6 frozen=false iter=239 energy=-0.09855254 Lattice="15.00000000 0.00000000 0.00000000 0.00000000 15.00000000 0.00000000 0.00000000 0.00000000 15.00000000" energy_frozen_part=0.00000000 Properties=species:S:1:pos:R:3:velocities:R:3:Z:I:1
H         1.67190456       0.23617060      13.18417771         0.00000000       0.00000000       0.00000000          1
H        14.25500481       9.34254382      10.33688209         0.00000000       0.00000000       0.00000000          1
H        12.74385447       7.34543361      11.90328657         0.00000000       0.00000000       0.00000000          1
H         1.08214501       5.62773403       3.96516933         0.00000000       0.00000000       0.00000000          1
H         2.71321500      10.30351538       2.90468976         0.00000000       0.00000000       0.00000000          1
H         5.85602599      13.05830318      14.09082916         0.00000000       0.00000000       0.00000000          1
6
pbc=[F, F, F] list_num_par=6 frozen=false iter=249 energy=-0.10016731 Lattice="15.00000000 0.00000000 0.00000000 0.00000000 15.00000000 0.00000000 0.00000000 0.00000000 15.00000000" energy_frozen_part=0.00000000 Properties=species:S:1:pos:R:3:velocities:R:3:Z:I:1
H         8.89456210       1.25080960       5.94889496         0.00000000       0.00000000       0.00000000          1
H         6.24545496      14.97769897       0.46500446         0.00000000       0.00000000       0.00000000          1
H         6.71479370      11.29534929       0.78732854         0.00000000       0.00000000       0.00000000          1
H        12.98852825       8.96862482      13.50036046         0.00000000       0.00000000       0.00000000          1
H        14.34911991       6.76677502      13.41862624         0.00000000       0.00000000       0.00000000          1
H        10.62609879       8.95833241       8.68515709         0.00000000       0.00000000       0.00000000          1
6
pbc=[F, F, F] list_num_par=6 frozen=false iter=259 energy=-0.10176266 Lattice="15.00000000 0.00000000 0.00000000 0.00000000 15.00000000 0.00000000 0.00000000 0.00000000 15.00000000" energy_frozen_part=0.00000000 Properties=species:S:1:pos:R:3:velocities:R:3:Z:I:1
H         4.72326472      10.55886161      12.22763190         0.00000000       0.00000000       0.00000000          1
H         2.29721144       0.49574151      11.63540327         0.00000000       0.00000000       0.00000000          1
H        13.06445162      11.25000131       4.63422979         0.00000000       0.00000000       0.00000000          1
H        13.67489012       9.64355556       7.81241960         0.00000000       0.00000000       0.00000000          1
H        10.52785095      12.73929678       6.39097947         0.00000000       0.00000000       0.00000000          1
H         7.54415124       3.74185662      12.84217084         0.00000000       0.00000000       0.00000000          1
6
pbc=[F, F, F] list_num_par=6 frozen=false iter=269 energy=-0.10413961 Lattice="15.00000000 0.00000000 0.00000000 0.00000000 15.00000000 0.00000000 0.00000000 0.00000000 15.00000000" energy_frozen_part=0.00000000 Properties=species:S:1:pos:R:3:velocities:R:3:Z:I:1
H        10.28133078       2.70866124       2.00225943         0.00000000       0.00000000       0.00000000          1
H         0.58014307       1.28128179       5.03440079         0.00000000       0.00000000       0.00000000          1
H         9.27331217       5.42447746       2.56079213         0.00000000       0.00000000       0.00000000          1
H        12.28380650       5.17646156       6.54297754         0.00000000       0.00000000       0.00000000          1
H        11.06513846      11.58529807       7.53524371         0.00000000       0.00000000       0.00000000          1
H         3.86416326      11.41172662      10.57451505         0.00000000       0.00000000       0.00000000          1
6
pbc=[F, F, F] list_num_par=6 frozen=false iter=279 energy=-0.10656632 Lattice="15.00000000 0.00000000 0.00000000 0.00000000 15.00000000 0.00000000 0.00000000 0.00000000 15.00000000" energy_frozen_part=0.00000000 Properties=species:S:1:pos:R:3:velocities:R:3:Z:I:1
H         7.78825882       0.50767743      12.18400502         0.00000000       0.00000000       0.00000000          1
H         2.20621774      10.69737583       6.04342971         0.00000000       0.00000000       0.00000000          1
H        10.10432810      12.10264223       2.88038211         0.00000000       0.00000000       0.00000000          1
H         6.24630339       5.95030891       3.06475247         0.00000000       0.00000000       0.00000000          1
H         9.89774280      13.04631844       0.14001403         0.00000000       0.00000000       0.00000000          1
H         9.00847011       3.70981268       8.80804336         0.00000000       0.00000000       0.00000000          1
6
pbc=[F, F, F] list_num_par=6 frozen=false iter=289 energy=-0.11034608 Lattice="15.00000000 0.00000000 0.00000000 0.00000000 15.00000000 0.00000000 0.00000000 0.00000000 15.00000000" energy_frozen_part=0.00000000 Properties=species:S:1:pos:R:3:velocities:R:3:Z:I:1
H        12.41810278       8.70993846       1.94917433         0.00000000       0.00000000       0.00000000          1
H         6.84935237       5.46848297      13.90897240         0.00000000       0.00000000       0.00000000          1
H         8.13592279       3.08606961      14.38694709         0.00000000       0.00000000       0.00000000          1
H        14.12508134      11.18858295       7.36465262         0.00000000       0.00000000       0.00000000          1
H         8.37289452       6.33437288       9.32207296         0.00000000       0.00000000       0.00000000          1
H         0.33327373       4.11866821      13.94873710         0.00000000       0.00000000       0.00000000          1
6
pbc=[F, F, F] list_num_par=6 frozen=false iter=299 energy=-0.11344574 Lattice="15.00000000 0.00000000 0.00000000 0.00000000 15.00000000 0.00000000 0.00000000 0.00000000 15.00000000" energy_frozen_part=0.00000000 Properties=species:S:1:pos:R:3:velocities:R:3:Z:I:1
H         7.87555577       9.82965402      12.77453093         0.00000000       0.00000000       0.00000000          1
H        13.41186294       3.72736907       6.08484782         0.00000000       0.00000000       0.00000000          1
H         7.86781290       1.04263659       7.52618585         0.00000000       0.00000000       0.00000000          1
H         0.71596288       7.82918004      14.62261115         0.00000000       0.00000000       0.00000000          1
H         8.07969682       1.16617745      10.53168311         0.00000000       0.00000000       0.00000000          1
H         3.76484513       0.51470734       8.44145612         0.00000000       0.00000000       0.00000000          1
6
pbc=[F, F, F] list_num_par=6 frozen=false iter=309 energy=-0.11580934 Lattice="15.00000000 0.00000000 0.00000000 0.00000000 15.00000000 0.00000000 0.00000000 0.00000000 15.00000000" energy_frozen_part=0.00000000 Properties=species:S:1:pos:R:3:velocities:R:3:Z:I:1
H        10.90775127      12.17483347      11.37910235         0.00000000       0.00000000       0.00000000          1
H         8.94831844      13.99668583      10.30546283         0.00000000       0.00000000       0.00000000          1