6
pbc=[F, F, F] list_num_par=6 energy=3.58769536 iter=9 frozen=false Lattice="15.00000000 0.00000000 0.00000000 0.00000000 15.00000000 0.00000000 0.00000000 0.00000000 15.00000000" energy_frozen_part=0.00000000 Properties=species:S:1:pos:R:3:velocities:R:3:Z:I:1
H         1.99885058       2.42219452      14.17314836         0.00000000       0.00000000       0.00000000          1
H         1.05265625       7.36756126       9.05925542         0.00000000       0.00000000       0.00000000          1
H        10.87885467       5.56311596       5.92167527         0.00000000       0.00000000       0.00000000          1
H        10.75246048       0.74315821       4.58528919         0.00000000       0.00000000       0.00000000          1
H         3.31184765       3.92703076       8.25147205         0.00000000       0.00000000       0.00000000          1
H         1.47818443       5.45883024       9.56760303         0.00000000       0.00000000       0.00000000          1
6
pbc=[F, F, F] list_num_par=6 energy=0.79155543 iter=19 frozen=false Lattice="15.00000000 0.00000000 0.00000000 0.00000000 15.00000000 0.00000000 0.00000000 0.00000000 15.00000000" energy_frozen_part=0.00000000 Properties=species:S:1:pos:R:3:velocities:R:3:Z:I:1
H         4.57953441       4.27362952      14.69516864         0.00000000       0.00000000       0.00000000          1
H         4.49543685      14.46799350       3.34252406         0.00000000       0.00000000       0.00000000          1
H        10.86955166       2.64377909      11.44478762         0.00000000       0.00000000       0.00000000          1
H         2.93570353       9.07219105      13.08038443         0.00000000       0.00000000       0.00000000          1
H         8.48498330       3.18931239       6.77202720         0.00000000       0.00000000       0.00000000          1
H         4.28957838      13.88934954       5.48329902         0.00000000       0.00000000       0.00000000          1
6
pbc=[F, F, F] list_num_par=6 energy=-0.00230710 iter=29 frozen=false Lattice="15.00000000 0.00000000 0.00000000 0.00000000 15.00000000 0.00000000 0.00000000 0.00000000 15.00000000" energy_frozen_part=0.00000000 Properties=species:S:1:pos:R:3:velocities:R:3:Z:I:1
H         9.58517248      14.45399564       9.71074026         0.00000000       0.00000000       0.00000000          1
H        14.74275039      12.07276443      13.21896776         0.00000000       0.00000000       0.00000000          1
H         5.51501986       6.08092476       0.68689336         0.00000000       0.00000000       0.00000000          1
H         1.00469268      11.44902664       3.97078856         0.00000000       0.00000000       0.00000000          1
H         4.44256463       0.95816950       5.12753071         0.00000000       0.00000000       0.00000000          1
H         5.50556070       3.17267610      13.55231685         0.00000000       0.00000000       0.00000000          1
6
pbc=[F, F, F] list_num_par=6 energy=-0.00807551 iter=39 frozen=false Lattice="15.00000000 0.00000000 0.00000000 0.00000000 15.00000000 0.00000000 0.00000000 0.00000000 15.00000000" energy_frozen_part=0.00000000 Properties=species:S:1:pos:R:3:velocities:R:3:Z:I:1
H        13.72536978       6.31239236       0.74632463         0.00000000       0.00000000       0.00000000          1
H         2.62457219      13.78886632       8.86649080         0.00000000       0.00000000       0.00000000          1
H         8.63162608       7.86962233      12.71847258         0.00000000       0.00000000       0.00000000          1
H        11.58739884       5.79294431       8.10231164         0.00000000       0.00000000       0.00000000          1
H        14.73455191       6.78455208      13.19832546         0.00000000       0.00000000       0.00000000          1
H         4.00981952       9.28698428       4.95695841         0.00000000       0.00000000       0.00000000          1
6
pbc=[F, F, F] list_num_par=6 energy=-0.01242544 iter=49 frozen=false Lattice="15.00000000 0.00000000 0.00000000 0.00000000 15.00000000 0.00000000 0.00000000 0.00000000 15.00000000" energy_frozen_part=0.00000000 Properties=species:S:1:pos:R:3:velocities:R:3:Z:I:1
H         5.73294722       6.32330191       1.93300223         0.00000000       0.00000000       0.00000000          1
H         1.90225139       7.44112845      13.34514219         0.00000000       0.00000000       0.00000000          1
H         6.96749594       8.51055408       8.14722995         0.00000000       0.00000000       0.00000000          1
H        13.24146961      11.59511347       8.71370976         0.00000000       0.00000000       0.00000000          1
H         6.97012339       5.70825150      12.23804971         0.00000000       0.00000000       0.00000000          1
H        14.34740745       3.56990561      14.60388952         0.00000000       0.00000000       0.00000000          1
6
pbc=[F, F, F] list_num_par=6 energy=-0.01593705 iter=59 frozen=false Lattice="15.00000000 0.00000000 0.00000000 0.00000000 15.00000000 0.00000000 0.00000000 0.00000000 15.00000000" energy_frozen_part=0.00000000 Properties=species:S:1:pos:R:3:velocities:R:3:Z:I:1
H         5.95803427      11.36265056      10.80110376         0.00000000       0.00000000       0.00000000          1
H         9.43858662       2.83116244       4.68536084         0.00000000       0.00000000       0.00000000          1
H         3.28530539       4.67925319       0.83856289         0.00000000       0.00000000       0.00000000          1
H         4.69729487       9.27977745       8.06752448         0.00000000       0.00000000       0.00000000          1
H         3.71363703       0.09713419       3.15784598         0.00000000       0.00000000       0.00000000          1
H         3.33653634       2.81710020       2.36360023         0.00000000       0.00000000       0.00000000          1
6
pbc=[F, F, F] list_num_par=6 energy=-0.02095295 iter=69 frozen=false Lattice="15.00000000 0.00000000 0.00000000 0.00000000 15.00000000 0.00000000 0.00000000 0.00000000 15.00000000" energy_frozen_part=0.00000000 Properties=species:S:1:pos:R:3:velocities:R:3:Z:I:1
H         8.45490533      13.50188091      14.30381213         0.00000000       0.00000000       0.00000000          1
H         4.38448295       8.51702380      14.64801208         0.00000000       0.00000000       0.00000000          1
H         4.95012814       0.25282477       9.84236770         0.00000000       0.00000000       0.00000000          1
H        11.88495532      13.56316818       7.27880556         0.00000000       0.00000000       0.00000000          1
H         9.97154908      14.66746373       0.16160590         0.00000000       0.00000000       0.00000000          1
H         2.38453123       2.18493626      12.46937997         0.00000000       0.00000000       0.00000000          1
6
pbc=[F, F, F] list_num_par=6 energy=-0.02496237 iter=79 frozen=false Lattice="15.00000000 0.00000000 0.00000000 0.00000000 15.00000000 0.00000000 0.00000000 0.00000000 15.00000000" energy_frozen_part=0.00000000 Properties=species:S:1:pos:R:3:velocities:R:3:Z:I:1
H         9.46597543       7.79520853       3.15061083         0.00000000       0.00000000       0.00000000          1
H        10.29282190       0.45321186      12.44904660         0.00000000       0.00000000       0.00000000          1
H        12.84200725       4.33989065      10.70939792         0.00000000       0.00000000       0.00000000          1
H         7.39355797       9.92884210       6.57667604         0.00000000       0.00000000       0.00000000          1
H         1.17617255       3.04062357       9.99510223         0.00000000       0.00000000       0.00000000          1
H         3.42864937       5.57637254       6.04820089         0.00000000       0.00000000       0.00000000          1
6
pbc=[F, F, F] list_num_par=6 energy=-0.03037204 iter=89 frozen=false Lattice="15.00000000 0.00000000 0.00000000 0.00000000 15.00000000 0.00000000 0.00000000 0.00000000 15.00000000" energy_frozen_part=0.00000000 Properties=species:S:1:pos:R:3:velocities:R:3:Z:I:1
H         5.13793942       2.97624360      14.79485832         0.00000000       0.00000000       0.00000000          1
H         9.83498077       8.86175159       1.56452029         0.00000000       0.00000000       0.00000000          1
H         1.03436877       3.13951358       8.03300244         0.00000000       0.00000000       0.00000000          1
H         1.38831832      10.91074019      14.96049081         0.00000000       0.00000000       0.00000000          1
H         5.01840627       2.91976792       8.94701317         0.00000000       0.00000000       0.00000000          1
H         9.25632968       0.86235236       7.99812142         0.00000000       0.00000000       0.00000000          1
6
pbc=[F, F, F] list_num_par=6 energy=-0.03846523 iter=99 frozen=false Lattice="15.00000000 0.00000000 0.00000000 0.00000000 15.00000000 0.00000000 0.00000000 0.00000000 15.00000000" energy_frozen_part=0.00000000 Properties=species:S:1:pos:R:3:velocities:R:3:Z:I:1
H         2.43614937       2.58137452      10.66336267         0.00000000       0.00000000       0.00000000          1
H        13.68251579       3.25709711      10.65650146         0.00000000       0.00000000       0.00000000          1
H        11.80586614       0.37512573       0.82584151         0.00000000       0.00000000       0.00000000          1
H        10.49395152       7.98528158      10.83235114         0.00000000       0.00000000       0.00000000          1
H         9.29005220      10.79065294       7.24947795         0.00000000       0.00000000       0.00000000          1
H         9.16991855       5.41932247       7.95737228         0.00000000       0.00000000       0.00000000          1
6
pbc=[F, F, F] list_num_par=6 energy=-0.04383702 iter=109 frozen=false Lattice="15.00000000 0.00000000 0.00000000 0.00000000 15.00000000 0.00000000 0.00000000 0.00000000 15.00000000" energy_frozen_part=0.00000000 Properties=species:S:1:pos:R:3:velocities:R:3:Z:I:1
H         7.79446470       8.09903273      11.64144807         0.00000000       0.00000000       0.00000000          1
H         6.22475046      12.77742086       8.18223525         0.00000000       0.00000000       0.00000000          1
H        11.13003607      11.01480122       8.34485898         0.00000000       0.00000000       0.00000000          1
H        13.72629047       4.00310793       6.59421294         0.00000000       0.00000000       0.00000000          1
H         4.57325150       5.34646056       4.98762580         0.00000000       0.00000000       0.00000000          1
H         3.54585470      10.69806502      10.01902929         0.00000000       0.00000000       0.00000000          1
6
pbc=[F, F, F] list_num_par=6 energy=-0.05752029 iter=119 frozen=false Lattice="15.00000000 0.00000000 0.00000000 0.00000000 15.00000000 0.00000000 0.00000000 0.00000000 15.00000000" energy_frozen_part=0.00000000 Properties=species:S:1:pos:R:3:velocities:R:3:Z:I:1
H        14.27958280      11.85036595       5.37776539         0.00000000       0.00000000       0.00000000          1
H         2.72726975       5.90475740       2.94995084         0.00000000       0.00000000       0.00000000          1
H        10.24986275       5.38218115       5.90838273         0.00000000       0.00000000       0.00000000          1
H        10.92180142      11.98795913       5.15114499         0.00000000       0.00000000       0.00000000          1
H        14.80495820      14.92505692      13.42140666         0.00000000       0.00000000       0.00000000          1
H         9.58432629       2.07726758      13.99508575         0.00000000       0.00000000       0.00000000          1
6
pbc=[F, F, F] list_num_par=6 energy=-0.06394937 iter=129 frozen=false Lattice="15.00000000 0.00000000 0.00000000 0.00000000 15.00000000 0.00000000 0.00000000 0.00000000 15.00000000" energy_frozen_part=0.00000000 Properties=species:S:1:pos:R:3:velocities:R:3:Z:I:1
H        12.11701093      12.31063991       5.85955713         0.00000000       0.00000000       0.00000000          1
H         1.25802572       5.53813643       0.13908975         0.00000000       0.00000000       0.00000000          1
H         9.11844048       7.94204251       3.73429104         0.00000000       0.00000000       0.00000000          1
H        12.35376755       7.82248439       2.87260128         0.00000000       0.00000000       0.00000000          1
H        14.46414622      13.57256624      13.31400705         0.00000000       0.00000000       0.00000000          1
H         7.45698200       0.76205067      10.53428289         0.00000000       0.00000000       0.00000000          1
6
pbc=[F, F, F] list_num_par=6 energy=-0.06997780 iter=139 frozen=false Lattice="15.00000000 0.00000000 0.00000000 0.00000000 15.00000000 0.00000000 0.00000000 0.00000000 15.00000000" energy_frozen_part=0.00000000 Properties=species:S:1:pos:R:3:velocities:R:3:Z:I:1
H        10.80095586       6.85112253       5.78723286         0.00000000       0.00000000       0.00000000          1
H         7.86218769       8.17998025       5.24214260         0.00000000       0.00000000       0.00000000          1
H         4.74370023      12.09941479       8.04296669         0.00000000       0.00000000       0.00000000          1
H         2.94505764       1.17895732       4.69626892         0.00000000       0.00000000       0.00000000          1
H        12.69646269       3.42264222       1.57883504         0.00000000       0.00000000       0.00000000          1
H         8.18530482       3.45007646      12.84172647         0.00000000       0.00000000       0.00000000          1
6
pbc=[F, F, F] list_num_par=6 energy=-0.07271355 iter=149 frozen=false Lattice="15.00000000 0.00000000 0.00000000 0.00000000 15.00000000 0.00000000 0.00000000 0.00000000 15.00000000" energy_frozen_part=0.00000000 Properties=species:S:1:pos:R:3:velocities:R:3:Z:I:1
H        11.90366747      13.98280612       5.44420154         0.00000000       0.00000000       0.00000000          1
H         0.19435357       5.62413986       0.78560617         0.00000000       0.00000000       0.00000000          1
H         9.31390650       6.65306225       1.44676862         0.00000000       0.00000000       0.00000000          1
H        12.46813393       5.65234530       2.18164881         0.00000000       0.00000000       0.00000000          1
H        13.93398359      12.72360285       8.81918881         0.00000000       0.00000000       0.00000000          1
H         3.73776195       1.51035819       8.65439344         0.00000000       0.00000000       0.00000000          1
6
pbc=[F, F, F] list_num_par=6 energy=-0.07776672 iter=159 frozen=false Lattice="15.00000000 0.00000000 0.00000000 0.00000000 15.00000000 0.00000000 0.00000000 0.00000000 15.00000000" energy_frozen_part=0.00000000 Properties=species:S:1:pos:R:3:velocities:R:3:Z:I:1
H         9.98200180       1.77014446       0.34977544         0.00000000       0.00000000       0.00000000          1
H         5.55097842       8.81339172       2.99348897         0.00000000       0.00000000       0.00000000          1
H         9.04031662       8.02500698       5.90556360         0.00000000       0.00000000       0.00000000          1
H        11.73043563       4.34562885       1.28527752         0.00000000       0.00000000       0.00000000          1
H         0.49363021       1.05541625       6.93687117         0.00000000       0.00000000       0.00000000          1
H        12.21582821      13.15947107       9.88977363         0.00000000       0.00000000       0.00000000          1
6
pbc=[F, F, F] list_num_par=6 energy=-0.08310162 iter=169 frozen=false Lattice="15.00000000 0.00000000 0.00000000 0.00000000 15.00000000 0.00000000 0.00000000 0.00000000 15.00000000" energy_frozen_part=0.00000000 Properties=species:S:1:pos:R:3:velocities:R:3:Z:I:1
H         6.48556142       5.94127433      10.39185565         0.00000000       0.00000000       0.00000000          1
H        13.00064319       2.22891605      14.56917834         0.00000000       0.00000000       0.00000000          1
H         9.28692902       6.33350427       0.51393742         0.00000000       0.00000000       0.00000000          1
H        11.64185161       7.01109841      10.97124144         0.00000000       0.00000000       0.00000000          1
H         9.70809886       3.31478004       3.43557521         0.00000000       0.00000000       0.00000000          1
H         9.07212695       5.55357808       7.88212011         0.00000000       0.00000000       0.00000000          1
6
pbc=[F, F, F] list_num_par=6 energy=-0.08549630 iter=179 frozen=false Lattice="15.00000000 0.00000000 0.00000000 0.00000000 15.00000000 0.00000000 0.00000000 0.00000000 15.00000000" energy_frozen_part=0.00000000 Properties=species:S:1:pos:R:3:velocities:R:3:Z:I:1
H         6.79025302      13.06479479       8.31049256         0.00000000       0.00000000       0.00000000          1
H         1.42417701       3.94661459       1.23885323         0.00000000       0.00000000       0.00000000          1
H        11.09670583       8.00097781       2.16738248         0.00000000       0.00000000       0.00000000          1
H        11.03629153       4.73281852      13.36619501         0.00000000       0.00000000       0.00000000          1
H         8.68997242      12.32316241       6.01262220         0.00000000       0.00000000       0.00000000          1
H         3.97401821       8.60475571      12.08846495         0.00000000       0.00000000       0.00000000          1
6
pbc=[F, F, F] list_num_par=6 energy=-0.08834496 iter=189 frozen=false Lattice="15.00000000 0.00000000 0.00000000 0.00000000 15.00000000 0.00000000 0.00000000 0.00000000 15.00000000" energy_frozen_part=0.00000000 Properties=species:S:1:pos:R:3:velocities:R:3:Z:I:1
H         9.73937418       6.16709914      11.57705726         0.00000000       0.00000000       0.00000000          1
H         7.81150675       8.89387760       7.35922094         0.00000000       0.00000000       0.00000000          1
H        14.99382795       6.63346736       7.28842818         0.00000000       0.00000000       0.00000000          1
H         8.26193723       7.56206173       1.09259146         0.00000000       0.00000000       0.00000000          1
H         4.40486247       7.08446949      11.32053690         0.00000000       0.00000000       0.00000000          1
H         6.19663136       6.88137244       7.21576709         0.00000000       0.00000000       0.00000000          1
6
pbc=[F, F, F] list_num_par=6 energy=-0.09159509 iter=199 frozen=false Lattice="15.00000000 0.00000000 0.00000000 0.00000000 15.00000000 0.00000000 0.00000000 0.00000000 15.00000000" energy_frozen_part=0.00000000 Properties=species:S:1:pos:R:3:velocities:R:3:Z:I:1
H         9.41263193      12.97185585      11.54089011         0.00000000       0.00000000       0.00000000          1
H         9.10627883      14.36099417       8.87819247         0.00000000       0.00000000       0.00000000          1
H         5.54592484      14.19954468       0.24572612         0.00000000       0.00000000       0.00000000          1
H        11.03752697      14.44684998       3.07080720         0.00000000       0.00000000       0.00000000          1
H         3.60023327       1.77743838       3.91676180         0.00000000       0.00000000       0.00000000          1
H         0.01053038       4.97775328       9.01903045         0.00000000       0.00000000       0.00000000          1
6
pbc=[F, F, F] list_num_par=6 energy=-0.09443928 iter=209 frozen=false Lattice="15.00000000 0.00000000 0.00000000 0.00000000 15.00000000 0.00000000 0.00000000 0.00000000 15.00000000" energy_frozen_part=0.00000000 Properties=species:S:1:pos:R:3:velocities:R:3:Z:I:1
H        10.09724291      11.05501592       1.46153876         0.00000000       0.00000000       0.00000000          1
H        14.36726643       5.26531829       0.54052181         0.00000000       0.00000000       0.00000000          1
H        12.80678741      12.53472045       8.76067432         0.00000000       0.00000000       0.00000000          1
H         8.61359619       0.49292471       5.12905028         0.00000000       0.00000000       0.00000000          1
H        12.34675401      10.23023864      10.75525672         0.00000000       0.00000000       0.00000000          1
H         8.00701833      14.44305186       3.53269827         0.00000000       0.00000000       0.00000000          1
6
pbc=[F, F, F] list_num_par=6 energy=-0.09676625 iter=219 frozen=false Lattice="15.00000000 0.00000000 0.00000000 0.00000000 15.00000000 0.00000000 0.00000000 0.00000000 15.00000000" energy_frozen_part=0.00000000 Properties=species:S:1:pos:R:3:velocities:R:3:Z:I:1
H         4.05087009       2.50272882      14.54412712         0.00000000       0.00000000       0.00000000          1
H         8.27321368       9.86748322       3.07172078         0.00000000       0.00000000       0.00000000          1
H         2.14401042       1.49482072       6.53727439         0.00000000       0.00000000       0.00000000          1
H         1.33988802       8.24513577      13.78268265         0.00000000       0.00000000       0.00000000          1
H         5.28415896       0.62430124      13.03760168         0.00000000       0.00000000       0.00000000          1
H         9.26453734       1.40195014       4.39762052         0.00000000       0.00000000       0.00000000          1
6
pbc=[F, F, F] list_num_par=6 energy=-0.10066462 iter=229 frozen=false Lattice="15.00000000 0.00000000 0.00000000 0.00000000 15.00000000 0.00000000 0.00000000 0.00000000 15.00000000" energy_frozen_part=0.00000000 Properties=species:S:1:pos:R:3:velocities:R:3:Z:I:1
H        10.92748371      11.72182459       0.46401943         0.00000000       0.00000000       0.00000000          1
H         5.94581895       4.12406800       7.43963866         0.00000000       0.00000000       0.00000000          1
H         6.87903330       8.21379337       3.88343894         0.00000000       0.00000000       0.00000000          1
H        10.25532738      10.26364526       3.50991435         0.00000000       0.00000000       0.00000000          1
H        14.81043373      13.72466227       8.74319603         0.00000000       0.00000000       0.00000000          1
H         4.55344915       5.47591889       5.85965842         0.00000000       0.00000000       0.00000000          1
6
pbc=[F, F, F] list_num_par=6 energy=-0.10622509 iter=239 frozen=false Lattice="15.00000000 0.00000000 0.00000000 0.00000000 15.00000000 0.00000000 0.00000000 0.00000000 15.00000000" energy_frozen_part=0.00000000 Properties=species:S:1:pos:R:3:velocities:R:3:Z:I:1
H        13.31557807      14.19637550       7.15995333         0.00000000       0.00000000       0.00000000          1
H         2.11623112       4.11264269       1.48913873         0.00000000       0.00000000       0.00000000          1
H        12.95202524       8.54453941      10.61139037         0.00000000       0.00000000       0.00000000          1
H        13.67045571       3.99818201      14.51014497         0.00000000       0.00000000       0.00000000          1
H        13.97134986       9.97242483      12.86318380         0.00000000       0.00000000       0.00000000          1
H         6.81843632       7.49313927      11.59090757         0.00000000       0.00000000       0.00000000          1
6
pbc=[F, F, F] list_num_par=6 energy=-0.11149378 iter=249 frozen=false Lattice="15.00000000 0.00000000 0.00000000 0.00000000 15.00000000 0.00000000 0.00000000 0.00000000 15.00000000" energy_frozen_part=0.00000000 Properties=species:S:1:pos:R:3:velocities:R:3:Z:I:1
H         4.65190703       8.51241705       6.73715483         0.00000000       0.00000000       0.00000000          1
H         6.47891323       3.58255708      12.22861315         0.00000000       0.00000000       0.00000000          1
H         6.24326886      11.43414887       9.17767292         0.00000000       0.00000000       0.00000000          1
H         6.17565573       4.03054042       3.79872881         0.00000000       0.00000000       0.00000000          1
H         6.13330604       1.19847235       5.03661382         0.00000000       0.00000000       0.00000000          1
H         4.46118363      14.83763573      12.13199199         0.00000000       0.00000000       0.00000000          1
6
pbc=[F, F, F] list_num_par=6 energy=-0.11625155 iter=259 frozen=false Lattice="15.00000000 0.00000000 0.00000000 0.00000000 15.00000000 0.00000000 0.00000000 0.00000000 15.00000000" energy_frozen_part=0.00000000 Properties=species:S:1:pos:R:3:velocities:R:3:Z:I:1
H         6.44509571      11.77387677       9.52225136         0.00000000       0.00000000       0.00000000          1
H        14.97382179       6.43386986       3.88779840         0.00000000       0.00000000       0.00000000          1
H        11.69462476       6.57005671       3.50309886         0.00000000       0.00000000       0.00000000          1
H         6.70779847      13.56632206       2.87390590         0.00000000       0.00000000       0.00000000          1
H        11.61985571       4.92661436       6.63556827         0.00000000       0.00000000       0.00000000          1
H         8.63203047       3.89348616      12.94673084         0.00000000       0.00000000       0.00000000          1
6
pbc=[F, F, F] list_num_par=6 energy=-0.12247407 iter=269 frozen=false Lattice="15.00000000 0.00000000 0.00000000 0.00000000 15.00000000 0.00000000 0.00000000 0.00000000 15.00000000" energy_frozen_part=0.00000000 Properties=species:S:1:pos:R:3:velocities:R:3:Z:I:1
H        14.48404047      11.75189190       5.29856019         0.00000000       0.00000000       0.00000000          1
H         1.52905044      10.78624830      13.64082280         0.00000000       0.00000000       0.00000000          1
H         5.74397889      14.98734016       9.70080574         0.00000000       0.00000000       0.00000000          1
H         5.11035419      12.47481896      11.77599635         0.00000000       0.00000000       0.00000000          1
H        14.16836382      13.32017036       8.48722158         0.00000000       0.00000000       0.00000000          1
H         8.15297242      11.06597443       6.61674996         0.00000000       0.00000000       0.00000000          1
6
pbc=[F, F, F] list_num_par=6 energy=-0.12868413 iter=279 frozen=false Lattice="15.00000000 0.00000000 0.00000000 0.00000000 15.00000000 0.00000000 0.00000000 0.00000000 15.00000000" energy_frozen_part=0.00000000 Properties=species:S:1:pos:R:3:velocities:R:3:Z:I:1
H        14.50500318      10.24194887       2.61625293         0.00000000       0.00000000       0.00000000          1
H        11.43963081      12.55356482       2.39396125         0.00000000       0.00000000       0.00000000          1
H        14.16157079       3.47630816      14.89083250         0.00000000       0.00000000       0.00000000          1
H         8.39349460       9.81055748       5.11446258         0.00000000       0.00000000       0.00000000          1
H         7.06179815      14.77707786       7.44439353         0.00000000       0.00000000       0.00000000          1
H         8.38762338      14.27787749      10.09666184         0.00000000       0.00000000       0.00000000          1
6
pbc=[F, F, F] list_num_par=6 energy=-0.13262905 iter=289 frozen=false Lattice="15.00000000 0.00000000 0.00000000 0.00000000 15.00000000 0.00000000 0.00000000 0.00000000 15.00000000" energy_frozen_part=0.00000000 Properties=species:S:1:pos:R:3:velocities:R:3:Z:I:1
H         8.02856042       0.84256275       1.17787351         0.00000000       0.00000000       0.00000000          1
H         6.86243536       0.28018360      14.41009665         0.00000000       0.00000000       0.00000000          1
H        10.96533803       8.36447914      11.10348027         0.00000000       0.00000000       0.00000000          1
H         6.36735508      14.18288351       4.13385995         0.00000000       0.00000000       0.00000000          1
H         4.00117063      13.19477255       3.13071798         0.00000000       0.00000000       0.00000000          1
H         6.81998685      14.97391117       0.21817863         0.00000000       0.00000000       0.00000000          1
6
pbc=[F, F, F] list_num_par=6 energy=-0.13517477 iter=299 frozen=false Lattice="15.00000000 0.00000000 0.00000000 0.00000000 15.00000000 0.00000000 0.00000000 0.00000000 15.00000000" energy_frozen_part=0.00000000 Properties=species:S:1:pos:R:3:velocities:R:3:Z:I:1
H         4.11209554       6.16658376       8.15526685         0.00000000       0.00000000       0.00000000          1
H        10.78758706      14.83983889      14.40215596         0.00000000       0.00000000       0.00000000          1
H         2.91103172       9.34369902       6.38462898         0.00000000       0.00000000       0.00000000          1
H         0.22506887       8.54807829       7.51538124         0.00000000       0.00000000       0.00000000          1
H         2.56449958      12.57530360       2.17580170         0.00000000       0.00000000       0.00000000          1
H         9.24733835       9.95542812      13.23148477         0.00000000       0.00000000       0.00000000          1
6
pbc=[F, F, F] list_num_par=6 energy=-0.13783552 iter=309 frozen=false Lattice="15.00000000 0.00000000 0.00000000 0.00000000 15.00000000 0.00000000 0.00000000 0.00000000 15.00000000" energy_frozen_part=0.00000000 Properties=species:S:1:pos:R:3:velocities:R:3:Z:I:1
H         5.16401862      10.85194923       9.16727830         0.00000000       0.00000000       0.00000000          1
H        11.69191627       6.96636897       9.55171593         0.00000000       0.00000000       0.00000000          1