6
pbc=[F, F, F] list_num_par=6 energy=23.69067496 iter=9 frozen=false Lattice="15.00000000 0.00000000 0.00000000 0.00000000 15.00000000 0.00000000 0.00000000 0.00000000 15.00000000" energy_frozen_part=0.00000000 Properties=species:S:1:pos:R:3:velocities:R:3:Z:I:1
H         4.81724427       7.10988632      10.87389578         0.00000000       0.00000000       0.00000000          1
H         1.38611248       8.46831568       3.33944685         0.00000000       0.00000000       0.00000000          1
H         3.00902278       2.81080797       0.46132655         0.00000000       0.00000000       0.00000000          1
H        12.55425409       0.58350720       1.25428228         0.00000000       0.00000000       0.00000000          1
H         2.95344474       9.29364476       2.27192745         0.00000000       0.00000000       0.00000000          1
H         4.71282031       9.51302020       2.37654273         0.00000000       0.00000000       0.00000000          1
6
pbc=[F, F, F] list_num_par=6 energy=0.52181487 iter=19 frozen=false Lattice="15.00000000 0.00000000 0.00000000 0.00000000 15.00000000 0.00000000 0.00000000 0.00000000 15.00000000" energy_frozen_part=0.00000000 Properties=species:S:1:pos:R:3:velocities:R:3:Z:I:1
H        11.82496869       5.13799338       0.84236699         0.00000000       0.00000000       0.00000000          1
H         6.97353549       2.22969633       9.04226934         0.00000000       0.00000000       0.00000000          1
H         4.47423272       5.15591690       9.99618277         0.00000000       0.00000000       0.00000000          1
H         2.94298879       2.78723495       6.32702429         0.00000000       0.00000000       0.00000000          1
H        14.84130902       7.71689613      12.19535599         0.00000000       0.00000000       0.00000000          1
H         6.10400243       3.89509515       7.81165593         0.00000000       0.00000000       0.00000000          1
6
pbc=[F, F, F] list_num_par=6 energy=-0.00306201 iter=29 frozen=false Lattice="15.00000000 0.00000000 0.00000000 0.00000000 15.00000000 0.00000000 0.00000000 0.00000000 15.00000000" energy_frozen_part=0.00000000 Properties=species:S:1:pos:R:3:velocities:R:3:Z:I:1
H         9.47498340       0.78858919       1.01617398         0.00000000       0.00000000       0.00000000          1
H         7.32434950       0.57256135       9.08900781         0.00000000       0.00000000       0.00000000          1
H         3.35337571      10.95666283       9.51739149         0.00000000       0.00000000       0.00000000          1
H         8.09397943      13.93623516      11.32179723         0.00000000       0.00000000       0.00000000          1
H        13.35735675      11.36868868       0.73602565         0.00000000       0.00000000       0.00000000          1
H         0.35435114       4.15900472      11.30455509         0.00000000       0.00000000       0.00000000          1
6
pbc=[F, F, F] list_num_par=6 energy=-0.00479544 iter=39 frozen=false Lattice="15.00000000 0.00000000 0.00000000 0.00000000 15.00000000 0.00000000 0.00000000 0.00000000 15.00000000" energy_frozen_part=0.00000000 Properties=species:S:1:pos:R:3:velocities:R:3:Z:I:1
H        13.51478589       5.35127308       8.28602048         0.00000000       0.00000000       0.00000000          1
H        13.91837838       6.94363363      13.31358238         0.00000000       0.00000000       0.00000000          1
H         6.91890406      13.43031374       8.04713513         0.00000000       0.00000000       0.00000000          1
H         5.92379214       8.53587031       1.07511674         0.00000000       0.00000000       0.00000000          1
H         0.06141420      14.16516328       1.70532626         0.00000000       0.00000000       0.00000000          1
H         2.10945748       4.87802487       8.85449217         0.00000000       0.00000000       0.00000000          1
6
pbc=[F, F, F] list_num_par=6 energy=-0.00784118 iter=49 frozen=false Lattice="15.00000000 0.00000000 0.00000000 0.00000000 15.00000000 0.00000000 0.00000000 0.00000000 15.00000000" energy_frozen_part=0.00000000 Properties=species:S:1:pos:R:3:velocities:R:3:Z:I:1
H         0.59072909       3.91614508       6.51126726         0.00000000       0.00000000       0.00000000          1
H         1.43296352       2.35395656      11.91534333         0.00000000       0.00000000       0.00000000          1
H         6.24157446       4.61087953      11.56197411         0.00000000       0.00000000       0.00000000          1
H         8.75724265       7.75446609       3.58858115         0.00000000       0.00000000       0.00000000          1
H        10.14329732       0.44815597       1.71528321         0.00000000       0.00000000       0.00000000          1
H         1.28182024      13.26469590       0.47142775         0.00000000       0.00000000       0.00000000          1
6
pbc=[F, F, F] list_num_par=6 energy=-0.01243807 iter=59 frozen=false Lattice="15.00000000 0.00000000 0.00000000 0.00000000 15.00000000 0.00000000 0.00000000 0.00000000 15.00000000" energy_frozen_part=0.00000000 Properties=species:S:1:pos:R:3:velocities:R:3:Z:I:1
H         3.15981667       4.40451804       2.39074763         0.00000000       0.00000000       0.00000000          1
H         1.24266324      11.89329211       9.48846266         0.00000000       0.00000000       0.00000000          1
H         3.65319642      14.25280016       3.46861788         0.00000000       0.00000000       0.00000000          1
H         6.39802177       5.53872171       9.61149504         0.00000000       0.00000000       0.00000000          1
H         1.60284784       9.69500281       2.13215742         0.00000000       0.00000000       0.00000000          1
H        11.57264007       2.96885339       9.27751282         0.00000000       0.00000000       0.00000000          1
6
pbc=[F, F, F] list_num_par=6 energy=-0.01645106 iter=69 frozen=false Lattice="15.00000000 0.00000000 0.00000000 0.00000000 15.00000000 0.00000000 0.00000000 0.00000000 15.00000000" energy_frozen_part=0.00000000 Properties=species:S:1:pos:R:3:velocities:R:3:Z:I:1
H         2.05942502       4.63597127       6.79465676         0.00000000       0.00000000       0.00000000          1
H        13.17344365      10.15049372       5.63038373         0.00000000       0.00000000       0.00000000          1
H         3.27819435      12.44262303       3.47525107         0.00000000       0.00000000       0.00000000          1
H        10.45542300      14.32218716       1.23468323         0.00000000       0.00000000       0.00000000          1
H         0.20483917       1.63579691       9.36429131         0.00000000       0.00000000       0.00000000          1
H        11.24962393       4.33018263       7.49354422         0.00000000       0.00000000       0.00000000          1
6
pbc=[F, F, F] list_num_par=6 energy=-0.02207003 iter=79 frozen=false Lattice="15.00000000 0.00000000 0.00000000 0.00000000 15.00000000 0.00000000 0.00000000 0.00000000 15.00000000" energy_frozen_part=0.00000000 Properties=species:S:1:pos:R:3:velocities:R:3:Z:I:1
H         9.77533548       0.78849656       8.66046129         0.00000000       0.00000000       0.00000000          1
H        14.12291975       4.35879173       7.62713313         0.00000000       0.00000000       0.00000000          1
H         2.12609971       8.66505267       6.05343575         0.00000000       0.00000000       0.00000000          1
H        10.55649317      11.58932752       2.96122967         0.00000000       0.00000000       0.00000000          1
H         3.48091956       5.60941112       8.71533945         0.00000000       0.00000000       0.00000000          1
H         2.31495885       3.35729060       3.16704538         0.00000000       0.00000000       0.00000000          1
6
pbc=[F, F, F] list_num_par=6 energy=-0.02562070 iter=89 frozen=false Lattice="15.00000000 0.00000000 0.00000000 0.00000000 15.00000000 0.00000000 0.00000000 0.00000000 15.00000000" energy_frozen_part=0.00000000 Properties=species:S:1:pos:R:3:velocities:R:3:Z:I:1
H        14.96649749       8.12330503       6.40379522         0.00000000       0.00000000       0.00000000          1
H         1.85298275       6.03071556       2.66572301         0.00000000       0.00000000       0.00000000          1
H         5.38623038       5.52066659       4.29656913         0.00000000       0.00000000       0.00000000          1
H         2.15716461      12.38209067       9.51075066         0.00000000       0.00000000       0.00000000          1
H         2.74774820       0.21762073      13.70541510         0.00000000       0.00000000       0.00000000          1
H        13.63264298       3.20346742       1.29970448         0.00000000       0.00000000       0.00000000          1
6
pbc=[F, F, F] list_num_par=6 energy=-0.03108717 iter=99 frozen=false Lattice="15.00000000 0.00000000 0.00000000 0.00000000 15.00000000 0.00000000 0.00000000 0.00000000 15.00000000" energy_frozen_part=0.00000000 Properties=species:S:1:pos:R:3:velocities:R:3:Z:I:1
H         9.92056534       4.56769610      13.16181706         0.00000000       0.00000000       0.00000000          1
H         4.93856360       6.83702767       0.02950354         0.00000000       0.00000000       0.00000000          1
H         9.62618767       8.91901649      12.69183801         0.00000000       0.00000000       0.00000000          1
H         0.85238390       5.47924217       0.89654107         0.00000000       0.00000000       0.00000000          1
H         3.60914538       3.56584183       5.70723507         0.00000000       0.00000000       0.00000000          1
H         7.29765867      10.47782019       6.52578803         0.00000000       0.00000000       0.00000000          1
6
pbc=[F, F, F] list_num_par=6 energy=-0.03910630 iter=109 frozen=false Lattice="15.00000000 0.00000000 0.00000000 0.00000000 15.00000000 0.00000000 0.00000000 0.00000000 15.00000000" energy_frozen_part=0.00000000 Properties=species:S:1:pos:R:3:velocities:R:3:Z:I:1
H         2.54316103      13.89751797       7.38022107         0.00000000       0.00000000       0.00000000          1
H        10.41666110       8.35191957       2.88235301         0.00000000       0.00000000       0.00000000          1
H        13.71078178      12.98336229       4.05250898         0.00000000       0.00000000       0.00000000          1
H        11.74664276      13.94899089      10.89624918         0.00000000       0.00000000       0.00000000          1
H         1.56207858      13.19577929      12.80397128         0.00000000       0.00000000       0.00000000          1
H         0.17282637      10.97240849       9.69037012         0.00000000       0.00000000       0.00000000          1
6
pbc=[F, F, F] list_num_par=6 energy=-0.04327806 iter=119 frozen=false Lattice="15.00000000 0.00000000 0.00000000 0.00000000 15.00000000 0.00000000 0.00000000 0.00000000 15.00000000" energy_frozen_part=0.00000000 Properties=species:S:1:pos:R:3:velocities:R:3:Z:I:1
H         5.15757266       2.88572212      11.74706711         0.00000000       0.00000000       0.00000000          1
H        13.40282607      11.53634947       0.39731341         0.00000000       0.00000000       0.00000000          1
H         7.83759133       1.29170800       7.19177382         0.00000000       0.00000000       0.00000000          1
H         8.94420436       2.74507994       2.47830485         0.00000000       0.00000000       0.00000000          1
H         8.65608923       0.24164843       2.20564781         0.00000000       0.00000000       0.00000000          1
H         7.17651721      14.44289857       5.28478835         0.00000000       0.00000000       0.00000000          1
6
pbc=[F, F, F] list_num_par=6 energy=-0.04865834 iter=129 frozen=false Lattice="15.00000000 0.00000000 0.00000000 0.00000000 15.00000000 0.00000000 0.00000000 0.00000000 15.00000000" energy_frozen_part=0.00000000 Properties=species:S:1:pos:R:3:velocities:R:3:Z:I:1
H         7.17293061       5.31036669       6.15036560         0.00000000       0.00000000       0.00000000          1
H         2.40254417      14.01688975       9.79785264         0.00000000       0.00000000       0.00000000          1
H         5.64598329       4.52547607       0.93926863         0.00000000       0.00000000       0.00000000          1
H         5.80172514       8.66091430       9.43553668         0.00000000       0.00000000       0.00000000          1
H        14.29967623       9.72046373       6.31371053         0.00000000       0.00000000       0.00000000          1
H         0.73606097      13.06174118      11.46631190         0.00000000       0.00000000       0.00000000          1
6
pbc=[F, F, F] list_num_par=6 energy=-0.05554838 iter=139 frozen=false Lattice="15.00000000 0.00000000 0.00000000 0.00000000 15.00000000 0.00000000 0.00000000 0.00000000 15.00000000" energy_frozen_part=0.00000000 Properties=species:S:1:pos:R:3:velocities:R:3:Z:I:1
H         5.72861554      14.65418678       3.84225755         0.00000000       0.00000000       0.00000000          1
H         6.58864280       3.39601950       4.07103846         0.00000000       0.00000000       0.00000000          1
H         8.28164230      13.42155077      13.89057865         0.00000000       0.00000000       0.00000000          1
H         2.22511628       9.15251381       9.25424275         0.00000000       0.00000000       0.00000000          1
H         5.61274441       9.83063579       9.44933795         0.00000000       0.00000000       0.00000000          1
H        10.88428826      14.99429967       5.13507275         0.00000000       0.00000000       0.00000000          1
6
pbc=[F, F, F] list_num_par=6 energy=-0.06029242 iter=149 frozen=false Lattice="15.00000000 0.00000000 0.00000000 0.00000000 15.00000000 0.00000000 0.00000000 0.00000000 15.00000000" energy_frozen_part=0.00000000 Properties=species:S:1:pos:R:3:velocities:R:3:Z:I:1
H         2.62358141       2.94108952       9.08053988         0.00000000       0.00000000       0.00000000          1
H         5.93114103      14.00096784       3.52229667         0.00000000       0.00000000       0.00000000          1
H         3.03671596       5.96925993       6.18380122         0.00000000       0.00000000       0.00000000          1
H         7.51259249       7.88572373       6.37880816         0.00000000       0.00000000       0.00000000          1
H         8.58315904      14.74597233       0.96743378         0.00000000       0.00000000       0.00000000          1
H         1.98038347       0.50437696       3.53872477         0.00000000       0.00000000       0.00000000          1
6
pbc=[F, F, F] list_num_par=6 energy=-0.06624206 iter=159 frozen=false Lattice="15.00000000 0.00000000 0.00000000 0.00000000 15.00000000 0.00000000 0.00000000 0.00000000 15.00000000" energy_frozen_part=0.00000000 Properties=species:S:1:pos:R:3:velocities:R:3:Z:I:1
H        12.40916617       8.68153308       7.07408383         0.00000000       0.00000000       0.00000000          1
H         8.83923182       4.06911844      14.08540509         0.00000000       0.00000000       0.00000000          1
H         9.67723152       2.86198966       4.08014864         0.00000000       0.00000000       0.00000000          1
H         8.66700529      14.79806479       6.65716411         0.00000000       0.00000000       0.00000000          1
H         9.65294715       6.96167690       7.70743373         0.00000000       0.00000000       0.00000000          1
H         0.63902261       0.17884312       2.72068533         0.00000000       0.00000000       0.00000000          1
6
pbc=[F, F, F] list_num_par=6 energy=-0.07122376 iter=169 frozen=false Lattice="15.00000000 0.00000000 0.00000000 0.00000000 15.00000000 0.00000000 0.00000000 0.00000000 15.00000000" energy_frozen_part=0.00000000 Properties=species:S:1:pos:R:3:velocities:R:3:Z:I:1
H         7.30370153      11.21359565       5.46389844         0.00000000       0.00000000       0.00000000          1
H        14.16643101       3.89819081       1.62089781         0.00000000       0.00000000       0.00000000          1
H        13.87517127       4.80740949       6.21915134         0.00000000       0.00000000       0.00000000          1
H         0.06779090       2.58875779       2.56730690         0.00000000       0.00000000       0.00000000          1
H         8.95847163       0.50817553       0.18677243         0.00000000       0.00000000       0.00000000          1
H         5.99102833       1.49992100       1.31571561         0.00000000       0.00000000       0.00000000          1
6
pbc=[F, F, F] list_num_par=6 energy=-0.07849080 iter=179 frozen=false Lattice="15.00000000 0.00000000 0.00000000 0.00000000 15.00000000 0.00000000 0.00000000 0.00000000 15.00000000" energy_frozen_part=0.00000000 Properties=species:S:1:pos:R:3:velocities:R:3:Z:I:1
H         8.68331426      10.95658123       1.39559571         0.00000000       0.00000000       0.00000000          1
H        11.40883828       2.16412860       0.87857671         0.00000000       0.00000000       0.00000000          1
H        14.29067463       6.56924106       2.51833706         0.00000000       0.00000000       0.00000000          1
H         2.06866800       0.67823832      13.23117604         0.00000000       0.00000000       0.00000000          1
H        12.34767383       4.12160443       4.06766970         0.00000000       0.00000000       0.00000000          1
H         2.10632192       7.89496084       5.88413941         0.00000000       0.00000000       0.00000000          1
6
pbc=[F, F, F] list_num_par=6 energy=-0.08264427 iter=189 frozen=false Lattice="15.00000000 0.00000000 0.00000000 0.00000000 15.00000000 0.00000000 0.00000000 0.00000000 15.00000000" energy_frozen_part=0.00000000 Properties=species:S:1:pos:R:3:velocities:R:3:Z:I:1
H        14.53624714       7.74716172       9.50273530         0.00000000       0.00000000       0.00000000          1
H         9.41692570       3.02177147      13.13564025         0.00000000       0.00000000       0.00000000          1
H         8.24482648       1.99269122       8.53723789         0.00000000       0.00000000       0.00000000          1
H         7.12776926      14.97851213      13.57184545         0.00000000       0.00000000       0.00000000          1
H        11.36930257       7.52618192       9.31757196         0.00000000       0.00000000       0.00000000          1
H         1.29051892       0.28487843       0.43653605         0.00000000       0.00000000       0.00000000          1
6
pbc=[F, F, F] list_num_par=6 energy=-0.08920275 iter=199 frozen=false Lattice="15.00000000 0.00000000 0.00000000 0.00000000 15.00000000 0.00000000 0.00000000 0.00000000 15.00000000" energy_frozen_part=0.00000000 Properties=species:S:1:pos:R:3:velocities:R:3:Z:I:1
H         7.19472590       5.09619041       6.11468835         0.00000000       0.00000000       0.00000000          1
H         2.42297950      14.11009801       9.77374358         0.00000000       0.00000000       0.00000000          1
H         5.64059956       4.59962084       1.12771432         0.00000000       0.00000000       0.00000000          1
H         5.80399510       8.57408322       9.62162297         0.00000000       0.00000000       0.00000000          1
H        14.40327778       9.79369434       6.18168096         0.00000000       0.00000000       0.00000000          1
H         0.61271966      13.21062673      11.45699282         0.00000000       0.00000000       0.00000000          1
6
pbc=[F, F, F] list_num_par=6 energy=-0.09470169 iter=209 frozen=false Lattice="15.00000000 0.00000000 0.00000000 0.00000000 15.00000000 0.00000000 0.00000000 0.00000000 15.00000000" energy_frozen_part=0.00000000 Properties=species:S:1:pos:R:3:velocities:R:3:Z:I:1
H         2.48955472       8.43762098       9.70416651         0.00000000       0.00000000       0.00000000          1
H         1.83574191       5.45502603      11.37140733         0.00000000       0.00000000       0.00000000          1
H         7.69926095       4.72024099       7.05120398         0.00000000       0.00000000       0.00000000          1
H         4.98557650      14.93674835       0.42414128         0.00000000       0.00000000       0.00000000          1
H         8.50735224       7.74444519       8.74525390         0.00000000       0.00000000       0.00000000          1
H        14.16911922       8.00534017      11.45347768         0.00000000       0.00000000       0.00000000          1
6
pbc=[F, F, F] list_num_par=6 energy=-0.09841900 iter=219 frozen=false Lattice="15.00000000 0.00000000 0.00000000 0.00000000 15.00000000 0.00000000 0.00000000 0.00000000 15.00000000" energy_frozen_part=0.00000000 Properties=species:S:1:pos:R:3:velocities:R:3:Z:I:1
H         0.83663726       9.34185567      12.06939592         0.00000000       0.00000000       0.00000000          1
H         6.94286847       2.65000521       0.38606642         0.00000000       0.00000000       0.00000000          1
H         1.86605529      11.50726689      10.87887731         0.00000000       0.00000000       0.00000000          1
H        12.27780031      13.77071833       5.52855463         0.00000000       0.00000000       0.00000000          1
H        13.89770444      13.65434599       9.99657021         0.00000000       0.00000000       0.00000000          1
H         4.43006722       3.95909055       9.41550684         0.00000000       0.00000000       0.00000000          1
6
pbc=[F, F, F] list_num_par=6 energy=-0.09998659 iter=229 frozen=false Lattice="15.00000000 0.00000000 0.00000000 0.00000000 15.00000000 0.00000000 0.00000000 0.00000000 15.00000000" energy_frozen_part=0.00000000 Properties=species:S:1:pos:R:3:velocities:R:3:Z:I:1
H         9.40733163      11.67705841       4.95262140         0.00000000       0.00000000       0.00000000          1
H         7.76719586       7.49252763       1.25281416         0.00000000       0.00000000       0.00000000          1
H         8.69307991       5.06936241       1.03667418         0.00000000       0.00000000       0.00000000          1
H         7.88268471      14.14001854       7.75874657         0.00000000       0.00000000       0.00000000          1
H        11.67481168       9.76232099       9.11026303         0.00000000       0.00000000       0.00000000          1
H         9.26218378       4.66153874      12.87861725         0.00000000       0.00000000       0.00000000          1
6
pbc=[F, F, F] list_num_par=6 energy=-0.10258175 iter=239 frozen=false Lattice="15.00000000 0.00000000 0.00000000 0.00000000 15.00000000 0.00000000 0.00000000 0.00000000 15.00000000" energy_frozen_part=0.00000000 Properties=species:S:1:pos:R:3:velocities:R:3:Z:I:1
H         3.13356231       7.79977426       6.27742688         0.00000000       0.00000000       0.00000000          1
H         9.90351182       6.29607238       4.57641437         0.00000000       0.00000000       0.00000000          1
H        14.15822461       5.71857482       1.71991136         0.00000000       0.00000000       0.00000000          1
H         0.26157449      13.31708372      14.47359709         0.00000000       0.00000000       0.00000000          1
H         1.00046937      12.71094054      11.73241509         0.00000000       0.00000000       0.00000000          1
H        11.44297490       9.13001437      13.75976561         0.00000000       0.00000000       0.00000000          1
6
pbc=[F, F, F] list_num_par=6 energy=-0.10565450 iter=249 frozen=false Lattice="15.00000000 0.00000000 0.00000000 0.00000000 15.00000000 0.00000000 0.00000000 0.00000000 15.00000000" energy_frozen_part=0.00000000 Properties=species:S:1:pos:R:3:velocities:R:3:Z:I:1
H        10.07037217       9.37411648       9.09065793         0.00000000       0.00000000       0.00000000          1
H        12.80762332       5.39157721       7.53387020         0.00000000       0.00000000       0.00000000          1
H         1.38066730       5.18091398       6.35250008         0.00000000       0.00000000       0.00000000          1
H         0.61848695       4.56922580       2.40494210         0.00000000       0.00000000       0.00000000          1
H         4.24350567       4.58831168       4.69801189         0.00000000       0.00000000       0.00000000          1
H         8.24157364       4.19123926      10.08374070         0.00000000       0.00000000       0.00000000          1
6
pbc=[F, F, F] list_num_par=6 energy=-0.10818818 iter=259 frozen=false Lattice="15.00000000 0.00000000 0.00000000 0.00000000 15.00000000 0.00000000 0.00000000 0.00000000 15.00000000" energy_frozen_part=0.00000000 Properties=species:S:1:pos:R:3:velocities:R:3:Z:I:1
H         0.49862698       2.43171452      14.57369907         0.00000000       0.00000000       0.00000000          1
H         8.17299612       4.83661740       8.39889178         0.00000000       0.00000000       0.00000000          1
H         5.25202493       2.54256744       6.10411282         0.00000000       0.00000000       0.00000000          1
H         4.86962796       9.97469057       4.07915779         0.00000000       0.00000000       0.00000000          1
H         7.56896146       7.43813908       4.76875483         0.00000000       0.00000000       0.00000000          1
H         8.81807938      11.03913213       4.65420726         0.00000000       0.00000000       0.00000000          1
6
pbc=[F, F, F] list_num_par=6 energy=-0.11075469 iter=269 frozen=false Lattice="15.00000000 0.00000000 0.00000000 0.00000000 15.00000000 0.00000000 0.00000000 0.00000000 15.00000000" energy_frozen_part=0.00000000 Properties=species:S:1:pos:R:3:velocities:R:3:Z:I:1
H        14.30153494       8.50520822       5.89027499         0.00000000       0.00000000       0.00000000          1
H         1.42197474      14.68639849      12.19343802         0.00000000       0.00000000       0.00000000          1
H        10.16771675       4.76499268       5.10195430         0.00000000       0.00000000       0.00000000          1
H        11.49518627      12.37956358      13.07449479         0.00000000       0.00000000       0.00000000          1
H         9.64428112       4.65622108      10.29332134         0.00000000       0.00000000       0.00000000          1
H         7.75846085       6.13174091       4.67348470         0.00000000       0.00000000       0.00000000          1
6
pbc=[F, F, F] list_num_par=6 energy=-0.11365172 iter=279 frozen=false Lattice="15.00000000 0.00000000 0.00000000 0.00000000 15.00000000 0.00000000 0.00000000 0.00000000 15.00000000" energy_frozen_part=0.00000000 Properties=species:S:1:pos:R:3:velocities:R:3:Z:I:1
H         1.13913717       0.32050172       9.51638362         0.00000000       0.00000000       0.00000000          1
H         3.99582380       5.04326286       5.95310544         0.00000000       0.00000000       0.00000000          1
H         7.28678154       5.63718457       2.95118278         0.00000000       0.00000000       0.00000000          1
H        12.44409240      14.81658321      10.48193875         0.00000000       0.00000000       0.00000000          1
H         7.81879556      10.37549424       7.53036124         0.00000000       0.00000000       0.00000000          1
H        10.60008516      13.02670748       8.69040798         0.00000000       0.00000000       0.00000000          1
6
pbc=[F, F, F] list_num_par=6 energy=-0.11547838 iter=289 frozen=false Lattice="15.00000000 0.00000000 0.00000000 0.00000000 15.00000000 0.00000000 0.00000000 0.00000000 15.00000000" energy_frozen_part=0.00000000 Properties=species:S:1:pos:R:3:velocities:R:3:Z:I:1
H         8.88441587       2.25493116      10.15104610         0.00000000       0.00000000       0.00000000          1
H        11.10789775      14.08617586       3.77410965         0.00000000       0.00000000       0.00000000          1
H         5.46825174       2.79319791       8.02134012         0.00000000       0.00000000       0.00000000          1
H         9.94407452       7.12661476      13.47068239         0.00000000       0.00000000       0.00000000          1
H         8.26063393      14.36110765       5.32419552         0.00000000       0.00000000       0.00000000          1
H         5.28378627       5.19938317       4.99056682         0.00000000       0.00000000       0.00000000          1
6
pbc=[F, F, F] list_num_par=6 energy=-0.11776810 iter=299 frozen=false Lattice="15.00000000 0.00000000 0.00000000 0.00000000 15.00000000 0.00000000 0.00000000 0.00000000 15.00000000" energy_frozen_part=0.00000000 Properties=species:S:1:pos:R:3:velocities:R:3:Z:I:1
H        10.01173718       9.44528634       9.09176016         0.00000000       0.00000000       0.00000000          1
H        12.79660585       5.55317296       7.64811764         0.00000000       0.00000000       0.00000000          1
H         1.45759862       5.23938209       6.38346992         0.00000000       0.00000000       0.00000000          1
H         0.69146014       4.60557441       2.45404241         0.00000000       0.00000000       0.00000000          1
H         4.20013024       4.56615701       4.76095422         0.00000000       0.00000000       0.00000000          1
H         8.29522219       4.24700624      10.06039396         0.00000000       0.00000000       0.00000000          1
6
pbc=[F, F, F] list_num_par=6 energy=-0.12106701 iter=309 frozen=false Lattice="15.00000000 0.00000000 0.00000000 0.00000000 15.00000000 0.00000000 0.00000000 0.00000000 15.00000000" energy_frozen_part=0.00000000 Properties=species:S:1:pos:R:3:velocities:R:3:Z:I:1
H        11.71353338       0.53901839      11.69935067         0.00000000       0.00000000       0.00000000          1
H         7.93059698       9.56496674      13.55180527         0.00000000       0.00000000       0.00000000          1