6
pbc=[F, F, F] list_num_par=6 frozen=false iter=9 energy=98.15563387 Lattice="15.00000000 0.00000000 0.00000000 0.00000000 15.00000000 0.00000000 0.00000000 0.00000000 15.00000000" energy_frozen_part=0.00000000 Properties=species:S:1:pos:R:3:velocities:R:3:Z:I:1
H        10.51921555      10.22322919      10.65063825         0.00000000       0.00000000       0.00000000          1
H        14.23008245       8.09031512      11.31660090         0.00000000       0.00000000       0.00000000          1
H         3.92104171       2.04498021       6.89713974         0.00000000       0.00000000       0.00000000          1
H        14.99806237       8.95094918       4.61646825         0.00000000       0.00000000       0.00000000          1
H         5.38022575       1.54064814       6.60082120         0.00000000       0.00000000       0.00000000          1
H        11.90921375       3.73179558       3.40537394         0.00000000       0.00000000       0.00000000          1
6
pbc=[F, F, F] list_num_par=6 frozen=false iter=19 energy=0.89598802 Lattice="15.00000000 0.00000000 0.00000000 0.00000000 15.00000000 0.00000000 0.00000000 0.00000000 15.00000000" energy_frozen_part=0.00000000 Properties=species:S:1:pos:R:3:velocities:R:3:Z:I:1
H        10.31275217       4.73947428       6.60057686         0.00000000       0.00000000       0.00000000          1
H        11.13616335       2.86654024       5.76642558         0.00000000       0.00000000       0.00000000          1
H         6.59814613       8.67764902       8.40927377         0.00000000       0.00000000       0.00000000          1
H         1.89484528       1.13363616      12.61010362         0.00000000       0.00000000       0.00000000          1
H         5.09738584       3.07775851      13.99912859         0.00000000       0.00000000       0.00000000          1
H        13.33805757      12.01055146      10.28212756         0.00000000       0.00000000       0.00000000          1
6
pbc=[F, F, F] list_num_par=6 frozen=false iter=29 energy=-0.00450350 Lattice="15.00000000 0.00000000 0.00000000 0.00000000 15.00000000 0.00000000 0.00000000 0.00000000 15.00000000" energy_frozen_part=0.00000000 Properties=species:S:1:pos:R:3:velocities:R:3:Z:I:1
H        13.95788390       8.58707842      11.85175392         0.00000000       0.00000000       0.00000000          1
H        11.97155543       1.00690467       1.49268028         0.00000000       0.00000000       0.00000000          1
H         1.68051034       0.71522600      10.48939978         0.00000000       0.00000000       0.00000000          1
H        11.07408232       9.68807029       2.58236797         0.00000000       0.00000000       0.00000000          1
H         8.06421043      14.04398893       0.87519397         0.00000000       0.00000000       0.00000000          1
H         7.61835999       3.72492744       9.65574856         0.00000000       0.00000000       0.00000000          1
6
pbc=[F, F, F] list_num_par=6 frozen=false iter=39 energy=-0.00638215 Lattice="15.00000000 0.00000000 0.00000000 0.00000000 15.00000000 0.00000000 0.00000000 0.00000000 15.00000000" energy_frozen_part=0.00000000 Properties=species:S:1:pos:R:3:velocities:R:3:Z:I:1
H         5.03914294      14.87906101      14.81442832         0.00000000       0.00000000       0.00000000          1
H         6.51290176      10.82594893       3.62125208         0.00000000       0.00000000       0.00000000          1
H        11.03656974       5.56326494      14.25288273         0.00000000       0.00000000       0.00000000          1
H         6.70845011      10.24348134      13.20808255         0.00000000       0.00000000       0.00000000          1
H        14.48249923      10.36344358       7.70546852         0.00000000       0.00000000       0.00000000          1
H         6.08800542       0.69539736       2.76827233         0.00000000       0.00000000       0.00000000          1
6
pbc=[F, F, F] list_num_par=6 frozen=false iter=49 energy=-0.00983636 Lattice="15.00000000 0.00000000 0.00000000 0.00000000 15.00000000 0.00000000 0.00000000 0.00000000 15.00000000" energy_frozen_part=0.00000000 Properties=species:S:1:pos:R:3:velocities:R:3:Z:I:1
H         2.23425062       5.88633959       8.39120329         0.00000000       0.00000000       0.00000000          1
H        12.43719090       5.83527162       0.75800235         0.00000000       0.00000000       0.00000000          1
H        14.95535944       2.08117778      11.33227801         0.00000000       0.00000000       0.00000000          1
H         2.51223762       2.61749133      14.52310244         0.00000000       0.00000000       0.00000000          1
H        10.64635942       2.37060481       9.44709541         0.00000000       0.00000000       0.00000000          1
H         6.76514781      11.22550456       1.21821344         0.00000000       0.00000000       0.00000000          1
6
pbc=[F, F, F] list_num_par=6 frozen=false iter=59 energy=-0.01392587 Lattice="15.00000000 0.00000000 0.00000000 0.00000000 15.00000000 0.00000000 0.00000000 0.00000000 15.00000000" energy_frozen_part=0.00000000 Properties=species:S:1:pos:R:3:velocities:R:3:Z:I:1
H         6.71975511       5.56029094      10.30963727         0.00000000       0.00000000       0.00000000          1
H         3.57854412       4.01287206       1.70748950         0.00000000       0.00000000       0.00000000          1
H         5.13118535      11.32509214       5.05984049         0.00000000       0.00000000       0.00000000          1
H         9.55529124       0.37829718       8.20919399         0.00000000       0.00000000       0.00000000          1
H         2.42737664       5.90925615       8.79394455         0.00000000       0.00000000       0.00000000          1
H        12.41427694      14.20179840       7.70798059         0.00000000       0.00000000       0.00000000          1
6
pbc=[F, F, F] list_num_par=6 frozen=false iter=69 energy=-0.01660864 Lattice="15.00000000 0.00000000 0.00000000 0.00000000 15.00000000 0.00000000 0.00000000 0.00000000 15.00000000" energy_frozen_part=0.00000000 Properties=species:S:1:pos:R:3:velocities:R:3:Z:I:1
H         6.68584097      14.38142476      14.54164360         0.00000000       0.00000000       0.00000000          1
H         6.60221012       3.47884718      10.79421249         0.00000000       0.00000000       0.00000000          1
H        12.04410415       4.99803612      14.27535741         0.00000000       0.00000000       0.00000000          1
H        11.93489264       2.03961318       8.23112892         0.00000000       0.00000000       0.00000000          1
H        10.95782000       9.14999217      12.88225271         0.00000000       0.00000000       0.00000000          1
H         3.34128147      13.41573293       7.35839544         0.00000000       0.00000000       0.00000000          1
6
pbc=[F, F, F] list_num_par=6 frozen=false iter=79 energy=-0.02150712 Lattice="15.00000000 0.00000000 0.00000000 0.00000000 15.00000000 0.00000000 0.00000000 0.00000000 15.00000000" energy_frozen_part=0.00000000 Properties=species:S:1:pos:R:3:velocities:R:3:Z:I:1
H         9.00232504      12.33441800       3.09159834         0.00000000       0.00000000       0.00000000          1
H         1.99693014       4.70639762       3.14184537         0.00000000       0.00000000       0.00000000          1
H         8.33562059       1.12420784      13.43175360         0.00000000       0.00000000       0.00000000          1
H         8.51349518       7.92219249       2.60855766         0.00000000       0.00000000       0.00000000          1
H        13.31623391       0.68388266       3.83367301         0.00000000       0.00000000       0.00000000          1
H        10.28818531       0.32828365       7.59579137         0.00000000       0.00000000       0.00000000          1
6
pbc=[F, F, F] list_num_par=6 frozen=false iter=89 energy=-0.02623495 Lattice="15.00000000 0.00000000 0.00000000 0.00000000 15.00000000 0.00000000 0.00000000 0.00000000 15.00000000" energy_frozen_part=0.00000000 Properties=species:S:1:pos:R:3:velocities:R:3:Z:I:1
H         1.62301309       3.72024196      12.36087036         0.00000000       0.00000000       0.00000000          1
H         5.65646871       8.64895482       4.86021790         0.00000000       0.00000000       0.00000000          1
H        13.82339098       8.11900265       9.14594885         0.00000000       0.00000000       0.00000000          1
H         8.74890458       6.13155598       7.81929517         0.00000000       0.00000000       0.00000000          1
H        10.86535863      10.89248560       6.68557277         0.00000000       0.00000000       0.00000000          1
H        13.22447646       3.30616382      12.90499076         0.00000000       0.00000000       0.00000000          1
6
pbc=[F, F, F] list_num_par=6 frozen=false iter=99 energy=-0.02960169 Lattice="15.00000000 0.00000000 0.00000000 0.00000000 15.00000000 0.00000000 0.00000000 0.00000000 15.00000000" energy_frozen_part=0.00000000 Properties=species:S:1:pos:R:3:velocities:R:3:Z:I:1
H         1.96939168      13.56689069       9.06025261         0.00000000       0.00000000       0.00000000          1
H        11.57912316       9.62664236       7.50758941         0.00000000       0.00000000       0.00000000          1
H         6.11958421       5.62608156       5.85746526         0.00000000       0.00000000       0.00000000          1
H         5.29623932      14.45214920      10.76923380         0.00000000       0.00000000       0.00000000          1
H         1.95708436      13.40787244       1.37813907         0.00000000       0.00000000       0.00000000          1
H        11.05003473       1.45181338       1.70979870         0.00000000       0.00000000       0.00000000          1
6
pbc=[F, F, F] list_num_par=6 frozen=false iter=109 energy=-0.03636587 Lattice="15.00000000 0.00000000 0.00000000 0.00000000 15.00000000 0.00000000 0.00000000 0.00000000 15.00000000" energy_frozen_part=0.00000000 Properties=species:S:1:pos:R:3:velocities:R:3:Z:I:1
H         4.51200306       3.58186740       9.20531399         0.00000000       0.00000000       0.00000000          1
H         9.16200539       1.31445237       6.69420821         0.00000000       0.00000000       0.00000000          1
H         5.41185655      14.51016394       6.28956105         0.00000000       0.00000000       0.00000000          1
H        14.17496659      14.38737648      12.40562421         0.00000000       0.00000000       0.00000000          1
H        10.56737860      13.92879079      13.74691721         0.00000000       0.00000000       0.00000000          1
H         2.26223541       0.79116457      12.51724841         0.00000000       0.00000000       0.00000000          1
6
pbc=[F, F, F] list_num_par=6 frozen=false iter=119 energy=-0.04106053 Lattice="15.00000000 0.00000000 0.00000000 0.00000000 15.00000000 0.00000000 0.00000000 0.00000000 15.00000000" energy_frozen_part=0.00000000 Properties=species:S:1:pos:R:3:velocities:R:3:Z:I:1
H        11.14223504       5.87564935       7.61953931         0.00000000       0.00000000       0.00000000          1
H         4.53838896       4.67746518       9.53084162         0.00000000       0.00000000       0.00000000          1
H         5.47639688      13.68617629      11.97323351         0.00000000       0.00000000       0.00000000          1
H        10.44063271       3.98040930      10.95129727         0.00000000       0.00000000       0.00000000          1
H         7.71039318       7.79355513      12.63684661         0.00000000       0.00000000       0.00000000          1
H         0.82077507       4.07327846       0.52534647         0.00000000       0.00000000       0.00000000          1
6
pbc=[F, F, F] list_num_par=6 frozen=false iter=129 energy=-0.04540481 Lattice="15.00000000 0.00000000 0.00000000 0.00000000 15.00000000 0.00000000 0.00000000 0.00000000 15.00000000" energy_frozen_part=0.00000000 Properties=species:S:1:pos:R:3:velocities:R:3:Z:I:1
H         7.68879192      14.28156597      14.96162578         0.00000000       0.00000000       0.00000000          1
H        13.76444050       7.77612597      11.50419250         0.00000000       0.00000000       0.00000000          1
H        14.73652927      10.88977882      12.89318102         0.00000000       0.00000000       0.00000000          1
H        14.95925204      10.79710336       5.27432117         0.00000000       0.00000000       0.00000000          1
H         1.35199830       7.72630891       1.44493411         0.00000000       0.00000000       0.00000000          1
H         1.10365177      13.59198103       4.68080481         0.00000000       0.00000000       0.00000000          1
6
pbc=[F, F, F] list_num_par=6 frozen=false iter=139 energy=-0.04920091 Lattice="15.00000000 0.00000000 0.00000000 0.00000000 15.00000000 0.00000000 0.00000000 0.00000000 15.00000000" energy_frozen_part=0.00000000 Properties=species:S:1:pos:R:3:velocities:R:3:Z:I:1
H         5.48287715       9.89974850       4.46058810         0.00000000       0.00000000       0.00000000          1
H         4.10279100       0.77041211      11.23515947         0.00000000       0.00000000       0.00000000          1
H        12.86821912       8.70663810       8.53499989         0.00000000       0.00000000       0.00000000          1
H        11.67739250       6.07330168      13.86765515         0.00000000       0.00000000       0.00000000          1
H         6.19377743       3.27098081       9.44270081         0.00000000       0.00000000       0.00000000          1
H        10.52567023      11.40328610       5.53010167         0.00000000       0.00000000       0.00000000          1
6
pbc=[F, F, F] list_num_par=6 frozen=false iter=149 energy=-0.05624865 Lattice="15.00000000 0.00000000 0.00000000 0.00000000 15.00000000 0.00000000 0.00000000 0.00000000 15.00000000" energy_frozen_part=0.00000000 Properties=species:S:1:pos:R:3:velocities:R:3:Z:I:1
H         3.44055821      14.08079330      12.01546822         0.00000000       0.00000000       0.00000000          1
H        12.04889800       6.61001274       9.26230325         0.00000000       0.00000000       0.00000000          1
H         9.10468512       1.66909616      13.06308359         0.00000000       0.00000000       0.00000000          1
H         6.40148419      12.48132611      12.39961701         0.00000000       0.00000000       0.00000000          1
H        14.99102962      11.85375108      12.02672416         0.00000000       0.00000000       0.00000000          1
H         0.39905976       4.04377491       6.01816807         0.00000000       0.00000000       0.00000000          1
6
pbc=[F, F, F] list_num_par=6 frozen=false iter=159 energy=-0.06099689 Lattice="15.00000000 0.00000000 0.00000000 0.00000000 15.00000000 0.00000000 0.00000000 0.00000000 15.00000000" energy_frozen_part=0.00000000 Properties=species:S:1:pos:R:3:velocities:R:3:Z:I:1
H         2.88877882      12.99679253       5.29101540         0.00000000       0.00000000       0.00000000          1
H         9.53413085       6.48563712       1.26883959         0.00000000       0.00000000       0.00000000          1
H         5.58919295       0.20996142       6.28324708         0.00000000       0.00000000       0.00000000          1
H         6.74914763       0.27563005      11.89607806         0.00000000       0.00000000       0.00000000          1
H        14.41282352       0.76684535      14.32213653         0.00000000       0.00000000       0.00000000          1
H        10.07155933       7.18610526       4.49114984         0.00000000       0.00000000       0.00000000          1
6
pbc=[F, F, F] list_num_par=6 frozen=false iter=169 energy=-0.06814617 Lattice="15.00000000 0.00000000 0.00000000 0.00000000 15.00000000 0.00000000 0.00000000 0.00000000 15.00000000" energy_frozen_part=0.00000000 Properties=species:S:1:pos:R:3:velocities:R:3:Z:I:1
H         9.61081753       1.96677253       3.92326468         0.00000000       0.00000000       0.00000000          1
H         1.73527647       1.10606489       9.44189134         0.00000000       0.00000000       0.00000000          1
H         3.04778013       2.80703096       2.71379661         0.00000000       0.00000000       0.00000000          1
H         2.83259255       9.80057562       5.03485544         0.00000000       0.00000000       0.00000000          1
H         4.48842262      12.64549158       4.33436380         0.00000000       0.00000000       0.00000000          1
H         4.88780405       5.55206274       7.50810737         0.00000000       0.00000000       0.00000000          1
6
pbc=[F, F, F] list_num_par=6 frozen=false iter=179 energy=-0.07671615 Lattice="15.00000000 0.00000000 0.00000000 0.00000000 15.00000000 0.00000000 0.00000000 0.00000000 15.00000000" energy_frozen_part=0.00000000 Properties=species:S:1:pos:R:3:velocities:R:3:Z:I:1
H         7.58327407      11.31858476       9.42116139         0.00000000       0.00000000       0.00000000          1
H        10.35141597       7.65950658      10.82009616         0.00000000       0.00000000       0.00000000          1
H         9.99809378       1.52445426       4.05298802         0.00000000       0.00000000       0.00000000          1
H         8.53634011      14.64007395       6.09916916         0.00000000       0.00000000       0.00000000          1
H         4.88775869      11.87578848       7.33375653         0.00000000       0.00000000       0.00000000          1
H        11.18303610       7.77134238       3.90199079         0.00000000       0.00000000       0.00000000          1
6
pbc=[F, F, F] list_num_par=6 frozen=false iter=189 energy=-0.08173039 Lattice="15.00000000 0.00000000 0.00000000 0.00000000 15.00000000 0.00000000 0.00000000 0.00000000 15.00000000" energy_frozen_part=0.00000000 Properties=species:S:1:pos:R:3:velocities:R:3:Z:I:1
H         6.76294401      13.30383801      11.82518928         0.00000000       0.00000000       0.00000000          1
H        13.24568927       8.85735640       9.46289400         0.00000000       0.00000000       0.00000000          1
H        11.18120076       8.96954262      14.21385998         0.00000000       0.00000000       0.00000000          1
H        10.27783288       8.12993616       7.16540490         0.00000000       0.00000000       0.00000000          1
H         7.43948907      10.49404469      14.49768636         0.00000000       0.00000000       0.00000000          1
H         3.51789568       5.64397654       2.12855768         0.00000000       0.00000000       0.00000000          1
6
pbc=[F, F, F] list_num_par=6 frozen=false iter=199 energy=-0.08801013 Lattice="15.00000000 0.00000000 0.00000000 0.00000000 15.00000000 0.00000000 0.00000000 0.00000000 15.00000000" energy_frozen_part=0.00000000 Properties=species:S:1:pos:R:3:velocities:R:3:Z:I:1
H         6.05147436       4.94604114       5.44757862         0.00000000       0.00000000       0.00000000          1
H        14.42888434       9.52658501       4.13718114         0.00000000       0.00000000       0.00000000          1
H         3.11872013      14.86633559       3.60887587         0.00000000       0.00000000       0.00000000          1
H        10.95355475       7.61013919      12.81639134         0.00000000       0.00000000       0.00000000          1
H         2.83187417      12.08622209       2.06850401         0.00000000       0.00000000       0.00000000          1
H         6.47761544       3.72908813       1.44031203         0.00000000       0.00000000       0.00000000          1
6
pbc=[F, F, F] list_num_par=6 frozen=false iter=209 energy=-0.09117872 Lattice="15.00000000 0.00000000 0.00000000 0.00000000 15.00000000 0.00000000 0.00000000 0.00000000 15.00000000" energy_frozen_part=0.00000000 Properties=species:S:1:pos:R:3:velocities:R:3:Z:I:1
H         7.57120901      10.85643481       6.57771310         0.00000000       0.00000000       0.00000000          1
H        12.93767721      12.51518157       5.31114935         0.00000000       0.00000000       0.00000000          1
H        11.22638373      14.69381749       6.59816730         0.00000000       0.00000000       0.00000000          1
H         4.63528059      13.14452485      14.87686457         0.00000000       0.00000000       0.00000000          1
H         1.02342870       6.42092352      12.80349787         0.00000000       0.00000000       0.00000000          1
H        13.47724866       0.01602009      11.67395021         0.00000000       0.00000000       0.00000000          1
6
pbc=[F, F, F] list_num_par=6 frozen=false iter=219 energy=-0.09547727 Lattice="15.00000000 0.00000000 0.00000000 0.00000000 15.00000000 0.00000000 0.00000000 0.00000000 15.00000000" energy_frozen_part=0.00000000 Properties=species:S:1:pos:R:3:velocities:R:3:Z:I:1
H         4.61721606      14.95263166      14.03493320         0.00000000       0.00000000       0.00000000          1
H         2.70935375       5.37382557      10.96049534         0.00000000       0.00000000       0.00000000          1
H        11.04126717      10.54720091      11.30334390         0.00000000       0.00000000       0.00000000          1
H         6.84720594      14.12682301       6.88755664         0.00000000       0.00000000       0.00000000          1
H        12.04421728       2.57051656       3.10645858         0.00000000       0.00000000       0.00000000          1
H         7.14931361      12.10289563       9.16079814         0.00000000       0.00000000       0.00000000          1
6
pbc=[F, F, F] list_num_par=6 frozen=false iter=229 energy=-0.09753084 Lattice="15.00000000 0.00000000 0.00000000 0.00000000 15.00000000 0.00000000 0.00000000 0.00000000 15.00000000" energy_frozen_part=0.00000000 Properties=species:S:1:pos:R:3:velocities:R:3:Z:I:1
H         6.29765079      11.97738892       9.63093910         0.00000000       0.00000000       0.00000000          1
H         3.19575811      10.72359237      11.00054413         0.00000000       0.00000000       0.00000000          1
H         2.11072465       8.92977217       0.62759388         0.00000000       0.00000000       0.00000000          1
H        13.34375810       5.78078591       4.32536317         0.00000000       0.00000000       0.00000000          1
H         1.20504978       9.85580820       7.90982215         0.00000000       0.00000000       0.00000000          1
H         3.70433719      10.98884653       4.24721255         0.00000000       0.00000000       0.00000000          1
6
pbc=[F, F, F] list_num_par=6 frozen=false iter=239 energy=-0.10056607 Lattice="15.00000000 0.00000000 0.00000000 0.00000000 15.00000000 0.00000000 0.00000000 0.00000000 15.00000000" energy_frozen_part=0.00000000 Properties=species:S:1:pos:R:3:velocities:R:3:Z:I:1
H        13.71199814       6.20046795       1.13853226         0.00000000       0.00000000       0.00000000          1
H         7.15434814       4.37908585       1.60654219         0.00000000       0.00000000       0.00000000          1
H         9.59075862       3.61036440       0.99476463         0.00000000       0.00000000       0.00000000          1
H         4.34233496       0.57019623       3.78353987         0.00000000       0.00000000       0.00000000          1
H         8.44445056       9.07058624      11.34023794         0.00000000       0.00000000       0.00000000          1
H         6.89161235       5.72053289       8.48660491         0.00000000       0.00000000       0.00000000          1
6
pbc=[F, F, F] list_num_par=6 frozen=false iter=249 energy=-0.10168547 Lattice="15.00000000 0.00000000 0.00000000 0.00000000 15.00000000 0.00000000 0.00000000 0.00000000 15.00000000" energy_frozen_part=0.00000000 Properties=species:S:1:pos:R:3:velocities:R:3:Z:I:1
H         6.20728212      10.03219711      10.18349868         0.00000000       0.00000000       0.00000000          1
H         2.76068657      14.59294241       1.23554393         0.00000000       0.00000000       0.00000000          1
H        13.78757387       1.24531350       6.80545522         0.00000000       0.00000000       0.00000000          1
H         2.90374199       2.95387609       4.85908115         0.00000000       0.00000000       0.00000000          1
H        14.06144304       3.27276737      12.35939034         0.00000000       0.00000000       0.00000000          1
H         3.74116934       8.78635634      10.01987577         0.00000000       0.00000000       0.00000000          1
6
pbc=[F, F, F] list_num_par=6 frozen=false iter=259 energy=-0.10431394 Lattice="15.00000000 0.00000000 0.00000000 0.00000000 15.00000000 0.00000000 0.00000000 0.00000000 15.00000000" energy_frozen_part=0.00000000 Properties=species:S:1:pos:R:3:velocities:R:3:Z:I:1
H         0.45332839       7.99126460      10.59356902         0.00000000       0.00000000       0.00000000          1
H         4.45080617      12.31852336       7.70969043         0.00000000       0.00000000       0.00000000          1
H         7.22770359       8.82477549       3.36331091         0.00000000       0.00000000       0.00000000          1
H         7.41624045      12.98377305      12.33295600         0.00000000       0.00000000       0.00000000          1
H         2.26798601      13.68235963       1.36714417         0.00000000       0.00000000       0.00000000          1
H         1.58136574      12.46865753       8.54705322         0.00000000       0.00000000       0.00000000          1
6
pbc=[F, F, F] list_num_par=6 frozen=false iter=269 energy=-0.10866163 Lattice="15.00000000 0.00000000 0.00000000 0.00000000 15.00000000 0.00000000 0.00000000 0.00000000 15.00000000" energy_frozen_part=0.00000000 Properties=species:S:1:pos:R:3:velocities:R:3:Z:I:1
H         5.14835844      10.16982308       8.25247492         0.00000000       0.00000000       0.00000000          1
H        14.84566144      11.59446444       1.35548829         0.00000000       0.00000000       0.00000000          1
H         6.22056683       6.45996919       1.56362946         0.00000000       0.00000000       0.00000000          1
H         9.67964123      10.46198201      13.65269865         0.00000000       0.00000000       0.00000000          1
H         3.47880958      10.71812559       6.00215004         0.00000000       0.00000000       0.00000000          1
H        10.75232896       4.93535483       0.84382353         0.00000000       0.00000000       0.00000000          1
6
pbc=[F, F, F] list_num_par=6 frozen=false iter=279 energy=-0.11325709 Lattice="15.00000000 0.00000000 0.00000000 0.00000000 15.00000000 0.00000000 0.00000000 0.00000000 15.00000000" energy_frozen_part=0.00000000 Properties=species:S:1:pos:R:3:velocities:R:3:Z:I:1
H        11.04925934       8.01042104      10.70145628         0.00000000       0.00000000       0.00000000          1
H         5.44618701       6.51500604       7.07312393         0.00000000       0.00000000       0.00000000          1
H         6.88698067      13.83192341       2.97504640         0.00000000       0.00000000       0.00000000          1
H        13.43181115       1.35230446      10.39700336         0.00000000       0.00000000       0.00000000          1
H         6.34664376       9.43200892       9.01420933         0.00000000       0.00000000       0.00000000          1
H         5.26973872      11.77536043       8.76337622         0.00000000       0.00000000       0.00000000          1
6
pbc=[F, F, F] list_num_par=6 frozen=false iter=289 energy=-0.11563887 Lattice="15.00000000 0.00000000 0.00000000 0.00000000 15.00000000 0.00000000 0.00000000 0.00000000 15.00000000" energy_frozen_part=0.00000000 Properties=species:S:1:pos:R:3:velocities:R:3:Z:I:1
H         2.03670006       5.81391279       5.25556407         0.00000000       0.00000000       0.00000000          1
H         4.64539353       3.08203023      10.38189485         0.00000000       0.00000000       0.00000000          1
H         5.20398627       0.77848446       0.79603135         0.00000000       0.00000000       0.00000000          1
H         9.32699995      12.25947384      13.56803707         0.00000000       0.00000000       0.00000000          1
H         7.52428397      10.50013187      12.99116853         0.00000000       0.00000000       0.00000000          1
H         8.80786988       7.73882052      14.73318071         0.00000000       0.00000000       0.00000000          1
6
pbc=[F, F, F] list_num_par=6 frozen=false iter=299 energy=-0.11806823 Lattice="15.00000000 0.00000000 0.00000000 0.00000000 15.00000000 0.00000000 0.00000000 0.00000000 15.00000000" energy_frozen_part=0.00000000 Properties=species:S:1:pos:R:3:velocities:R:3:Z:I:1
H        14.67010622       9.34993606       7.98591088         0.00000000       0.00000000       0.00000000          1
H         3.51065557       2.38964765      12.19995825         0.00000000       0.00000000       0.00000000          1
H        12.93158977       7.75411570       9.34387904         0.00000000       0.00000000       0.00000000          1
H         9.67379548       6.02445008       3.12492284         0.00000000       0.00000000       0.00000000          1
H        14.87779337       4.21181044      10.30308448         0.00000000       0.00000000       0.00000000          1
H         4.87760831      12.97905722       2.31754807         0.00000000       0.00000000       0.00000000          1
6
pbc=[F, F, F] list_num_par=6 frozen=false iter=309 energy=-0.12042643 Lattice="15.00000000 0.00000000 0.00000000 0.00000000 15.00000000 0.00000000 0.00000000 0.00000000 15.00000000" energy_frozen_part=0.00000000 Properties=species:S:1:pos:R:3:velocities:R:3:Z:I:1
H        13.89869395       2.72911283      12.10447305         0.00000000       0.00000000       0.00000000          1
H         5.20373908       5.47341437       5.06428530         0.00000000       0.00000000       0.00000000          1