6
pbc=[F, F, F] list_num_par=6 energy=-1.26974174 iter=20000 frozen=false Lattice="15.00000000 0.00000000 0.00000000 0.00000000 15.00000000 0.00000000 0.00000000 0.00000000 15.00000000" energy_frozen_part=0.00000000 Properties=species:S:1:pos:R:3:velocities:R:3:Z:I:1
H         1.31687164      13.19096165      13.19862932         0.00000000       0.00000000       0.00000000          1
H         4.06490157      12.96140379      12.75150276         0.00000000       0.00000000       0.00000000          1
H         2.83673931      11.41255695      14.72557634         0.00000000       0.00000000       0.00000000          1
H         2.25561323      11.98525098      10.85997791         0.00000000       0.00000000       0.00000000          1
H         1.02745102      10.43640291      12.83404765         0.00000000       0.00000000       0.00000000          1
H         3.77548144      10.20683945      12.38692021         0.00000000       0.00000000       0.00000000          1
6
pbc=[F, F, F] list_num_par=6 energy=-1.26974174 iter=20000 frozen=false Lattice="15.00000000 0.00000000 0.00000000 0.00000000 15.00000000 0.00000000 0.00000000 0.00000000 15.00000000" energy_frozen_part=0.00000000 Properties=species:S:1:pos:R:3:velocities:R:3:Z:I:1
H         1.20112457      13.13170154      13.24735261         0.00000000       0.00000000       0.00000000          1
H         3.94294625      12.89887198      12.76517529         0.00000000       0.00000000       0.00000000          1
H         2.73547892      11.34037664      14.74441314         0.00000000       0.00000000       0.00000000          1
H         2.10841772      11.93863126      10.88987468         0.00000000       0.00000000       0.00000000          1
H         0.90094752      10.38013461      12.86911572         0.00000000       0.00000000       0.00000000          1
H         3.64277227      10.14730695      12.38693802         0.00000000       0.00000000       0.00000000          1
6
pbc=[F, F, F] list_num_par=6 energy=-1.26974174 iter=20000 frozen=false Lattice="15.00000000 0.00000000 0.00000000 0.00000000 15.00000000 0.00000000 0.00000000 0.00000000 15.00000000" energy_frozen_part=0.00000000 Properties=species:S:1:pos:R:3:velocities:R:3:Z:I:1
H         1.31684207      13.19088630      13.19867053         0.00000000       0.00000000       0.00000000          1
H         4.06486491      12.96138781      12.75150688         0.00000000       0.00000000       0.00000000          1
H         2.83677188      11.41252915      14.72561324         0.00000000       0.00000000       0.00000000          1
H         2.25557595      11.98517328      10.86000841         0.00000000       0.00000000       0.00000000          1
H         1.02748036      10.43631741      12.83411876         0.00000000       0.00000000       0.00000000          1
H         3.77550756      10.20681893      12.38694839         0.00000000       0.00000000       0.00000000          1
6
pbc=[F, F, F] list_num_par=6 energy=-1.26974174 iter=20000 frozen=false Lattice="15.00000000 0.00000000 0.00000000 0.00000000 15.00000000 0.00000000 0.00000000 0.00000000 15.00000000" energy_frozen_part=0.00000000 Properties=species:S:1:pos:R:3:velocities:R:3:Z:I:1
H         1.19787248      13.12764304      13.24826646         0.00000000       0.00000000       0.00000000          1
H         3.93926476      12.89973665      12.76133786         0.00000000       0.00000000       0.00000000          1
H         2.73824757      11.33997147      14.74351044         0.00000000       0.00000000       0.00000000          1
H         2.10322357      11.93508878      10.88978466         0.00000000       0.00000000       0.00000000          1
H         0.90221049      10.37532546      12.87195595         0.00000000       0.00000000       0.00000000          1
H         3.64360571      10.14741849      12.38503256         0.00000000       0.00000000       0.00000000          1
6
pbc=[F, F, F] list_num_par=6 energy=-1.26974174 iter=20000 frozen=false Lattice="15.00000000 0.00000000 0.00000000 0.00000000 15.00000000 0.00000000 0.00000000 0.00000000 15.00000000" energy_frozen_part=0.00000000 Properties=species:S:1:pos:R:3:velocities:R:3:Z:I:1
H         1.31729588      13.19067699      13.19850550         0.00000000       0.00000000       0.00000000          1
H         4.06526919      12.96064823      12.75126765         0.00000000       0.00000000       0.00000000          1
H         2.83695766      11.41214741      14.72551403         0.00000000       0.00000000       0.00000000          1
H         2.25573566      11.98463513      10.85989956         0.00000000       0.00000000       0.00000000          1
H         1.02742367      10.43613436      12.83415051         0.00000000       0.00000000       0.00000000          1
H         3.77539231      10.20610906      12.38690432         0.00000000       0.00000000       0.00000000          1
6
pbc=[F, F, F] list_num_par=6 energy=-1.26974174 iter=20000 frozen=false Lattice="15.00000000 0.00000000 0.00000000 0.00000000 15.00000000 0.00000000 0.00000000 0.00000000 15.00000000" energy_frozen_part=0.00000000 Properties=species:S:1:pos:R:3:velocities:R:3:Z:I:1
H         1.19787192      13.12764497      13.24827333         0.00000000       0.00000000       0.00000000          1
H         3.93926761      12.89973314      12.76133981         0.00000000       0.00000000       0.00000000          1
H         2.73824959      11.33997460      14.74351109         0.00000000       0.00000000       0.00000000          1
H         2.10322915      11.93508862      10.88979296         0.00000000       0.00000000       0.00000000          1
H         0.90221275      10.37532845      12.87196066         0.00000000       0.00000000       0.00000000          1
H         3.64360315      10.14741306      12.38502884         0.00000000       0.00000000       0.00000000          1
6
pbc=[F, F, F] list_num_par=6 energy=-1.26974174 iter=20000 frozen=false Lattice="15.00000000 0.00000000 0.00000000 0.00000000 15.00000000 0.00000000 0.00000000 0.00000000 15.00000000" energy_frozen_part=0.00000000 Properties=species:S:1:pos:R:3:velocities:R:3:Z:I:1
H         1.31723530      13.19059969      13.19857201         0.00000000       0.00000000       0.00000000          1
H         4.06519888      12.96069541      12.75123905         0.00000000       0.00000000       0.00000000          1
H         2.83702122      11.41212963      14.72552190         0.00000000       0.00000000       0.00000000          1
H         2.25565103      11.98460503      10.85992834         0.00000000       0.00000000       0.00000000          1
H         1.02746228      10.43604743      12.83421451         0.00000000       0.00000000       0.00000000          1
H         3.77543393      10.20613967      12.38688346         0.00000000       0.00000000       0.00000000          1
6
pbc=[F, F, F] list_num_par=6 energy=-1.26974174 iter=20000 frozen=false Lattice="15.00000000 0.00000000 0.00000000 0.00000000 15.00000000 0.00000000 0.00000000 0.00000000 15.00000000" energy_frozen_part=0.00000000 Properties=species:S:1:pos:R:3:velocities:R:3:Z:I:1
H         1.19787978      13.12764189      13.24828560         0.00000000       0.00000000       0.00000000          1
H         3.93927627      12.89973734      12.76138670         0.00000000       0.00000000       0.00000000          1
H         2.73823800      11.33995846      14.74353444         0.00000000       0.00000000       0.00000000          1
H         2.10326163      11.93509986      10.88980626         0.00000000       0.00000000       0.00000000          1
H         0.90222404      10.37532930      12.87195341         0.00000000       0.00000000       0.00000000          1
H         3.64361987      10.14741845      12.38505799         0.00000000       0.00000000       0.00000000          1
6
pbc=[F, F, F] list_num_par=6 energy=-1.26974174 iter=20000 frozen=false Lattice="15.00000000 0.00000000 0.00000000 0.00000000 15.00000000 0.00000000 0.00000000 0.00000000 15.00000000" energy_frozen_part=0.00000000 Properties=species:S:1:pos:R:3:velocities:R:3:Z:I:1
H         1.31678756      13.19088760      13.19871406         0.00000000       0.00000000       0.00000000          1
H         4.06482491      12.96144178      12.75157859         0.00000000       0.00000000       0.00000000          1
H         2.83672408      11.41250642      14.72561689         0.00000000       0.00000000       0.00000000          1
H         2.25557364      11.98525797      10.86003253         0.00000000       0.00000000       0.00000000          1
H         1.02747460      10.43632309      12.83407021         0.00000000       0.00000000       0.00000000          1
H         3.77551540      10.20687927      12.38693694         0.00000000       0.00000000       0.00000000          1
6
pbc=[F, F, F] list_num_par=6 energy=-1.26974174 iter=20000 frozen=false Lattice="15.00000000 0.00000000 0.00000000 0.00000000 15.00000000 0.00000000 0.00000000 0.00000000 15.00000000" energy_frozen_part=0.00000000 Properties=species:S:1:pos:R:3:velocities:R:3:Z:I:1
H         1.31679928      13.19088325      13.19871672         0.00000000       0.00000000       0.00000000          1
H         4.06483323      12.96143887      12.75155761         0.00000000       0.00000000       0.00000000          1
H         2.83673695      11.41250338      14.72561227         0.00000000       0.00000000       0.00000000          1
H         2.25556353      11.98525377      10.86002653         0.00000000       0.00000000       0.00000000          1
H         1.02747311      10.43632214      12.83407788         0.00000000       0.00000000       0.00000000          1
H         3.77551008      10.20687583      12.38692871         0.00000000       0.00000000       0.00000000          1
6
pbc=[F, F, F] list_num_par=6 energy=-1.26974174 iter=20000 frozen=false Lattice="15.00000000 0.00000000 0.00000000 0.00000000 15.00000000 0.00000000 0.00000000 0.00000000 15.00000000" energy_frozen_part=0.00000000 Properties=species:S:1:pos:R:3:velocities:R:3:Z:I:1
H         1.31684255      13.19088160      13.19866884         0.00000000       0.00000000       0.00000000          1
H         4.06487414      12.96138619      12.75150841         0.00000000       0.00000000       0.00000000          1
H         2.83676858      11.41252480      14.72561150         0.00000000       0.00000000       0.00000000          1
H         2.25557732      11.98517806      10.86001570         0.00000000       0.00000000       0.00000000          1
H         1.02747846      10.43631350      12.83411665         0.00000000       0.00000000       0.00000000          1
H         3.77550474      10.20681802      12.38695296         0.00000000       0.00000000       0.00000000          1
6
pbc=[F, F, F] list_num_par=6 energy=-1.26974174 iter=20000 frozen=false Lattice="15.00000000 0.00000000 0.00000000 0.00000000 15.00000000 0.00000000 0.00000000 0.00000000 15.00000000" energy_frozen_part=0.00000000 Properties=species:S:1:pos:R:3:velocities:R:3:Z:I:1
H         1.31681941      13.19088540      13.19871921         0.00000000       0.00000000       0.00000000          1
H         4.06485119      12.96142989      12.75157990         0.00000000       0.00000000       0.00000000          1
H         2.83674168      11.41248075      14.72561478         0.00000000       0.00000000       0.00000000          1
H         2.25558682      11.98527388      10.86002735         0.00000000       0.00000000       0.00000000          1
H         1.02747750      10.43632541      12.83405949         0.00000000       0.00000000       0.00000000          1
H         3.77551454      10.20687043      12.38691815         0.00000000       0.00000000       0.00000000          1
6
pbc=[F, F, F] list_num_par=6 energy=-1.26974174 iter=20000 frozen=false Lattice="15.00000000 0.00000000 0.00000000 0.00000000 15.00000000 0.00000000 0.00000000 0.00000000 15.00000000" energy_frozen_part=0.00000000 Properties=species:S:1:pos:R:3:velocities:R:3:Z:I:1
H         1.20112570      13.13169623      13.24735142         0.00000000       0.00000000       0.00000000          1
H         3.94294364      12.89887831      12.76517703         0.00000000       0.00000000       0.00000000          1
H         2.73548366      11.34037252      14.74441330         0.00000000       0.00000000       0.00000000          1
H         2.10842396      11.93863144      10.88987637         0.00000000       0.00000000       0.00000000          1
H         0.90096077      10.38013318      12.86912106         0.00000000       0.00000000       0.00000000          1
H         3.64278077      10.14730909      12.38693860         0.00000000       0.00000000       0.00000000          1
6
pbc=[F, F, F] list_num_par=6 energy=-1.26974174 iter=20000 frozen=false Lattice="15.00000000 0.00000000 0.00000000 0.00000000 15.00000000 0.00000000 0.00000000 0.00000000 15.00000000" energy_frozen_part=0.00000000 Properties=species:S:1:pos:R:3:velocities:R:3:Z:I:1
H         1.31682864      13.19096719      13.19866662         0.00000000       0.00000000       0.00000000          1
H         4.06484533      12.96144317      12.75145829         0.00000000       0.00000000       0.00000000          1
H         2.83676677      11.41262168      14.72560783         0.00000000       0.00000000       0.00000000          1
H         2.25550932      11.98522543      10.86000791         0.00000000       0.00000000       0.00000000          1
H         1.02743182      10.43639980      12.83415656         0.00000000       0.00000000       0.00000000          1
H         3.77545188      10.20687543      12.38694729         0.00000000       0.00000000       0.00000000          1
6
pbc=[F, F, F] list_num_par=6 energy=-1.26974174 iter=20000 frozen=false Lattice="15.00000000 0.00000000 0.00000000 0.00000000 15.00000000 0.00000000 0.00000000 0.00000000 15.00000000" energy_frozen_part=0.00000000 Properties=species:S:1:pos:R:3:velocities:R:3:Z:I:1
H         1.31683759      13.19097420      13.19866825         0.00000000       0.00000000       0.00000000          1
H         4.06485609      12.96142132      12.75145347         0.00000000       0.00000000       0.00000000          1
H         2.83676370      11.41259634      14.72558259         0.00000000       0.00000000       0.00000000          1
H         2.25550400      11.98524130      10.85999518         0.00000000       0.00000000       0.00000000          1
H         1.02741778      10.43640856      12.83412971         0.00000000       0.00000000       0.00000000          1
H         3.77542947      10.20685629      12.38691291         0.00000000       0.00000000       0.00000000          1
6
pbc=[F, F, F] list_num_par=6 energy=-1.26974174 iter=20000 frozen=false Lattice="15.00000000 0.00000000 0.00000000 0.00000000 15.00000000 0.00000000 0.00000000 0.00000000 15.00000000" energy_frozen_part=0.00000000 Properties=species:S:1:pos:R:3:velocities:R:3:Z:I:1
H         1.31729729      13.19067157      13.19850341         0.00000000       0.00000000       0.00000000          1
H         4.06527134      12.96065450      12.75126827         0.00000000       0.00000000       0.00000000          1
H         2.83695528      11.41215749      14.72552078         0.00000000       0.00000000       0.00000000          1
H         2.25574242      11.98463150      10.85989944         0.00000000       0.00000000       0.00000000          1
H         1.02743246      10.43612624      12.83415239         0.00000000       0.00000000       0.00000000          1
H         3.77540184      10.20611049      12.38691377         0.00000000       0.00000000       0.00000000          1
6
pbc=[F, F, F] list_num_par=6 energy=-1.26974174 iter=20000 frozen=false Lattice="15.00000000 0.00000000 0.00000000 0.00000000 15.00000000 0.00000000 0.00000000 0.00000000 15.00000000" energy_frozen_part=0.00000000 Properties=species:S:1:pos:R:3:velocities:R:3:Z:I:1
H         1.31680529      13.19087541      13.19873418         0.00000000       0.00000000       0.00000000          1
H         4.06483382      12.96145128      12.75156075         0.00000000       0.00000000       0.00000000          1
H         2.83677037      11.41248350      14.72560339         0.00000000       0.00000000       0.00000000          1
H         2.25555960      11.98527369      10.86002865         0.00000000       0.00000000       0.00000000          1
H         1.02749281      10.43631306      12.83406970         0.00000000       0.00000000       0.00000000          1
H         3.77552436      10.20688574      12.38689787         0.00000000       0.00000000       0.00000000          1
6
pbc=[F, F, F] list_num_par=6 energy=-1.26974174 iter=20000 frozen=false Lattice="15.00000000 0.00000000 0.00000000 0.00000000 15.00000000 0.00000000 0.00000000 0.00000000 15.00000000" energy_frozen_part=0.00000000 Properties=species:S:1:pos:R:3:velocities:R:3:Z:I:1
H         1.31723315      13.19060978      13.19856991         0.00000000       0.00000000       0.00000000          1
H         4.06519652      12.96069628      12.75121564         0.00000000       0.00000000       0.00000000          1
H         2.83702452      11.41215028      14.72552657         0.00000000       0.00000000       0.00000000          1
H         2.25562174      11.98459756      10.85993377         0.00000000       0.00000000       0.00000000          1
H         1.02745413      10.43605431      12.83424056         0.00000000       0.00000000       0.00000000          1
H         3.77541729      10.20613627      12.38689043         0.00000000       0.00000000       0.00000000          1
6
pbc=[F, F, F] list_num_par=6 energy=-1.26974174 iter=20000 frozen=false Lattice="15.00000000 0.00000000 0.00000000 0.00000000 15.00000000 0.00000000 0.00000000 0.00000000 15.00000000" energy_frozen_part=0.00000000 Properties=species:S:1:pos:R:3:velocities:R:3:Z:I:1
H         1.31686016      13.19086292      13.19869780         0.00000000       0.00000000       0.00000000          1
H         4.06488041      12.96135885      12.75147782         0.00000000       0.00000000       0.00000000          1
H         2.83680667      11.41247253      14.72557710         0.00000000       0.00000000       0.00000000          1
H         2.25555134      11.98518367      10.86000260         0.00000000       0.00000000       0.00000000          1
H         1.02748262      10.43629657      12.83409703         0.00000000       0.00000000       0.00000000          1
H         3.77550278      10.20679654      12.38688656         0.00000000       0.00000000       0.00000000          1
6
pbc=[F, F, F] list_num_par=6 energy=-1.26974174 iter=20000 frozen=false Lattice="15.00000000 0.00000000 0.00000000 0.00000000 15.00000000 0.00000000 0.00000000 0.00000000 15.00000000" energy_frozen_part=0.00000000 Properties=species:S:1:pos:R:3:velocities:R:3:Z:I:1
H         1.31725523      13.19061628      13.19853420         0.00000000       0.00000000       0.00000000          1
H         4.06522361      12.96071672      12.75123222         0.00000000       0.00000000       0.00000000          1
H         2.83703131      11.41215868      14.72551184         0.00000000       0.00000000       0.00000000          1
H         2.25568944      11.98461348      10.85991091         0.00000000       0.00000000       0.00000000          1
H         1.02749773      10.43605807      12.83419747         0.00000000       0.00000000       0.00000000          1
H         3.77546863      10.20616006      12.38688385         0.00000000       0.00000000       0.00000000          1
6
pbc=[F, F, F] list_num_par=6 energy=-1.26974174 iter=20000 frozen=false Lattice="15.00000000 0.00000000 0.00000000 0.00000000 15.00000000 0.00000000 0.00000000 0.00000000 15.00000000" energy_frozen_part=0.00000000 Properties=species:S:1:pos:R:3:velocities:R:3:Z:I:1
H         1.19788639      13.12766568      13.24827105         0.00000000       0.00000000       0.00000000          1
H         3.93928209      12.89974449      12.76135996         0.00000000       0.00000000       0.00000000          1
H         2.73825490      11.33998077      14.74351218         0.00000000       0.00000000       0.00000000          1
H         2.10324596      11.93510567      10.88979616         0.00000000       0.00000000       0.00000000          1
H         0.90221782      10.37534577      12.87195706         0.00000000       0.00000000       0.00000000          1
H         3.64361382      10.14742459      12.38503716         0.00000000       0.00000000       0.00000000          1
6
pbc=[F, F, F] list_num_par=6 energy=-1.26974174 iter=20000 frozen=false Lattice="15.00000000 0.00000000 0.00000000 0.00000000 15.00000000 0.00000000 0.00000000 0.00000000 15.00000000" energy_frozen_part=0.00000000 Properties=species:S:1:pos:R:3:velocities:R:3:Z:I:1
H         1.31725748      13.19062860      13.19855897         0.00000000       0.00000000       0.00000000          1
H         4.06522998      12.96070493      12.75126273         0.00000000       0.00000000       0.00000000          1
H         2.83701149      11.41215820      14.72554592         0.00000000       0.00000000       0.00000000          1
H         2.25569475      11.98461931      10.85993061         0.00000000       0.00000000       0.00000000          1
H         1.02747667      10.43607547      12.83421303         0.00000000       0.00000000       0.00000000          1
H         3.77544973      10.20615078      12.38691735         0.00000000       0.00000000       0.00000000          1
6
pbc=[F, F, F] list_num_par=6 energy=-1.26974174 iter=20000 frozen=false Lattice="15.00000000 0.00000000 0.00000000 0.00000000 15.00000000 0.00000000 0.00000000 0.00000000 15.00000000" energy_frozen_part=0.00000000 Properties=species:S:1:pos:R:3:velocities:R:3:Z:I:1
H         1.31730437      13.19068098      13.19851028         0.00000000       0.00000000       0.00000000          1
H         4.06527578      12.96065451      12.75124979         0.00000000       0.00000000       0.00000000          1
H         2.83697765      11.41215447      14.72551696         0.00000000       0.00000000       0.00000000          1
H         2.25572725      11.98463539      10.85989947         0.00000000       0.00000000       0.00000000          1
H         1.02742626      10.43614003      12.83416405         0.00000000       0.00000000       0.00000000          1
H         3.77539968      10.20611314      12.38690362         0.00000000       0.00000000       0.00000000          1
6
pbc=[F, F, F] list_num_par=6 energy=-1.26974174 iter=20000 frozen=false Lattice="15.00000000 0.00000000 0.00000000 0.00000000 15.00000000 0.00000000 0.00000000 0.00000000 15.00000000" energy_frozen_part=0.00000000 Properties=species:S:1:pos:R:3:velocities:R:3:Z:I:1
H         1.31722977      13.19059669      13.19856442         0.00000000       0.00000000       0.00000000          1
H         4.06519301      12.96068680      12.75124372         0.00000000       0.00000000       0.00000000          1
H         2.83700434      11.41212467      14.72552387         0.00000000       0.00000000       0.00000000          1
H         2.25564926      11.98460675      10.85992338         0.00000000       0.00000000       0.00000000          1
H         1.02745506      10.43604137      12.83420626         0.00000000       0.00000000       0.00000000          1
H         3.77542287      10.20613273      12.38688701         0.00000000       0.00000000       0.00000000          1
6
pbc=[F, F, F] list_num_par=6 energy=-1.26974174 iter=20000 frozen=false Lattice="15.00000000 0.00000000 0.00000000 0.00000000 15.00000000 0.00000000 0.00000000 0.00000000 15.00000000" energy_frozen_part=0.00000000 Properties=species:S:1:pos:R:3:velocities:R:3:Z:I:1
H         1.31684025      13.19097952      13.19867166         0.00000000       0.00000000       0.00000000          1
H         4.06485606      12.96144107      12.75145861         0.00000000       0.00000000       0.00000000          1
H         2.83678050      11.41262121      14.72560281         0.00000000       0.00000000       0.00000000          1
H         2.25551491      11.98522920      10.86000938         0.00000000       0.00000000       0.00000000          1
H         1.02743190      10.43640848      12.83415468         0.00000000       0.00000000       0.00000000          1
H         3.77544979      10.20687264      12.38694372         0.00000000       0.00000000       0.00000000          1
6
pbc=[F, F, F] list_num_par=6 energy=-1.26974174 iter=20000 frozen=false Lattice="15.00000000 0.00000000 0.00000000 0.00000000 15.00000000 0.00000000 0.00000000 0.00000000 15.00000000" energy_frozen_part=0.00000000 Properties=species:S:1:pos:R:3:velocities:R:3:Z:I:1
H         1.31686220      13.19092112      13.19868569         0.00000000       0.00000000       0.00000000          1
H         4.06487726      12.96138179      12.75146838         0.00000000       0.00000000       0.00000000          1
H         2.83679623      11.41253721      14.72559683         0.00000000       0.00000000       0.00000000          1
H         2.25553899      11.98520225      10.86000727         0.00000000       0.00000000       0.00000000          1
H         1.02745613      10.43635501      12.83412757         0.00000000       0.00000000       0.00000000          1
H         3.77547073      10.20681795      12.38691823         0.00000000       0.00000000       0.00000000          1
6
pbc=[F, F, F] list_num_par=6 energy=-1.26974174 iter=20000 frozen=false Lattice="15.00000000 0.00000000 0.00000000 0.00000000 15.00000000 0.00000000 0.00000000 0.00000000 15.00000000" energy_frozen_part=0.00000000 Properties=species:S:1:pos:R:3:velocities:R:3:Z:I:1
H         1.31729398      13.19067158      13.19849882         0.00000000       0.00000000       0.00000000          1
H         4.06527371      12.96065715      12.75126890         0.00000000       0.00000000       0.00000000          1
H         2.83695455      11.41215575      14.72551875         0.00000000       0.00000000       0.00000000          1
H         2.25575445      11.98463068      10.85989917         0.00000000       0.00000000       0.00000000          1
H         1.02743194      10.43612436      12.83414616         0.00000000       0.00000000       0.00000000          1
H         3.77540699      10.20611238      12.38692055         0.00000000       0.00000000       0.00000000          1
6
pbc=[F, F, F] list_num_par=6 energy=-1.26974174 iter=20000 frozen=false Lattice="15.00000000 0.00000000 0.00000000 0.00000000 15.00000000 0.00000000 0.00000000 0.00000000 15.00000000" energy_frozen_part=0.00000000 Properties=species:S:1:pos:R:3:velocities:R:3:Z:I:1
H         1.31724129      13.19060069      13.19856752         0.00000000       0.00000000       0.00000000          1
H         4.06520759      12.96068980      12.75123385         0.00000000       0.00000000       0.00000000          1
H         2.83701743      11.41213148      14.72552333         0.00000000       0.00000000       0.00000000          1
H         2.25564744      11.98459812      10.85992737         0.00000000       0.00000000       0.00000000          1
H         1.02746216      10.43604331      12.83421674         0.00000000       0.00000000       0.00000000          1
H         3.77542821      10.20613202      12.38688628         0.00000000       0.00000000       0.00000000          1
6
pbc=[F, F, F] list_num_par=6 energy=-1.26974174 iter=20000 frozen=false Lattice="15.00000000 0.00000000 0.00000000 0.00000000 15.00000000 0.00000000 0.00000000 0.00000000 15.00000000" energy_frozen_part=0.00000000 Properties=species:S:1:pos:R:3:velocities:R:3:Z:I:1
H         1.31722052      13.19060439      13.19859418         0.00000000       0.00000000       0.00000000          1
H         4.06518371      12.96068807      12.75125046         0.00000000       0.00000000       0.00000000          1
H         2.83700514      11.41211906      14.72553394         0.00000000       0.00000000       0.00000000          1
H         2.25562082      11.98462218      10.85994025         0.00000000       0.00000000       0.00000000          1
H         1.02743960      10.43605849      12.83422264         0.00000000       0.00000000       0.00000000          1
H         3.77540629      10.20613471      12.38688154         0.00000000       0.00000000       0.00000000          1
6
pbc=[F, F, F] list_num_par=6 energy=-1.26974174 iter=20000 frozen=false Lattice="15.00000000 0.00000000 0.00000000 0.00000000 15.00000000 0.00000000 0.00000000 0.00000000 15.00000000" energy_frozen_part=0.00000000 Properties=species:S:1:pos:R:3:velocities:R:3:Z:I:1
H         1.31723348      13.19059180      13.19856490         0.00000000       0.00000000       0.00000000          1
H         4.06519911      12.96068309      12.75123731         0.00000000       0.00000000       0.00000000          1
H         2.83701145      11.41212429      14.72552244         0.00000000       0.00000000       0.00000000          1
H         2.25564750      11.98459747      10.85992086         0.00000000       0.00000000       0.00000000          1
H         1.02746287      10.43603777      12.83420544         0.00000000       0.00000000       0.00000000          1
H         3.77543271      10.20613050      12.38688757         0.00000000       0.00000000       0.00000000          1
6
pbc=[F, F, F] list_num_par=6 energy=-1.26974174 iter=20000 frozen=false Lattice="15.00000000 0.00000000 0.00000000 0.00000000 15.00000000 0.00000000 0.00000000 0.00000000 15.00000000" energy_frozen_part=0.00000000 Properties=species:S:1:pos:R:3:velocities:R:3:Z:I:1
H         1.31729747      13.19067362      13.19851592         0.00000000       0.00000000       0.00000000          1
H         4.06526347      12.96066049      12.75124904         0.00000000       0.00000000       0.00000000          1