6
pbc=[F, F, F] list_num_par=6 frozen=false iter=20000 energy=-1.26974174 Lattice="15.00000000 0.00000000 0.00000000 0.00000000 15.00000000 0.00000000 0.00000000 0.00000000 15.00000000" energy_frozen_part=0.00000000 Properties=species:S:1:pos:R:3:velocities:R:3:Z:I:1
H         8.73209801      14.45715597       1.98275269         0.00000000       0.00000000       0.00000000          1
H        10.18336018      12.25615041       1.05879266         0.00000000       0.00000000       0.00000000          1
H        11.67223463      12.24556677       3.42255914         0.00000000       0.00000000       0.00000000          1
H         8.88281647      12.13486411       3.52823935         0.00000000       0.00000000       0.00000000          1
H        10.22098263      14.44657646       4.34652454         0.00000000       0.00000000       0.00000000          1
H        11.52151892      14.56786453       1.87707109         0.00000000       0.00000000       0.00000000          1
6
pbc=[F, F, F] list_num_par=6 frozen=false iter=20000 energy=-1.26974174 Lattice="15.00000000 0.00000000 0.00000000 0.00000000 15.00000000 0.00000000 0.00000000 0.00000000 15.00000000" energy_frozen_part=0.00000000 Properties=species:S:1:pos:R:3:velocities:R:3:Z:I:1
H         4.78575828       4.71684733       3.03462425         0.00000000       0.00000000       0.00000000          1
H         6.71966711       6.70950581       2.72865275         0.00000000       0.00000000       0.00000000          1
H         5.25046989       6.54104952       5.09874901         0.00000000       0.00000000       0.00000000          1
H         4.34364593       6.83239126       1.26451810         0.00000000       0.00000000       0.00000000          1
H         2.87443979       6.66393931       3.63461234         0.00000000       0.00000000       0.00000000          1
H         4.80834375       8.65659201       3.32864142         0.00000000       0.00000000       0.00000000          1
6
pbc=[F, F, F] list_num_par=6 frozen=false iter=20000 energy=-1.26974174 Lattice="15.00000000 0.00000000 0.00000000 0.00000000 15.00000000 0.00000000 0.00000000 0.00000000 15.00000000" energy_frozen_part=0.00000000 Properties=species:S:1:pos:R:3:velocities:R:3:Z:I:1
H         8.73203760      14.45716020       1.98275081         0.00000000       0.00000000       0.00000000          1
H        10.18340476      12.25624200       1.05874516         0.00000000       0.00000000       0.00000000          1
H        11.67222321      12.24563465       3.42255797         0.00000000       0.00000000       0.00000000          1
H         8.88280308      12.13481032       3.52814861         0.00000000       0.00000000       0.00000000          1
H        10.22085149      14.44654109       4.34656928         0.00000000       0.00000000       0.00000000          1
H        11.52145271      14.56797863       1.87715719         0.00000000       0.00000000       0.00000000          1
6
pbc=[F, F, F] list_num_par=6 frozen=false iter=20000 energy=-1.26974174 Lattice="15.00000000 0.00000000 0.00000000 0.00000000 15.00000000 0.00000000 0.00000000 0.00000000 15.00000000" energy_frozen_part=0.00000000 Properties=species:S:1:pos:R:3:velocities:R:3:Z:I:1
H         8.73204209      14.45717111       1.98274183         0.00000000       0.00000000       0.00000000          1
H        10.18338883      12.25622755       1.05876345         0.00000000       0.00000000       0.00000000          1
H        11.67220657      12.24562711       3.42257185         0.00000000       0.00000000       0.00000000          1
H         8.88278505      12.13484579       3.52817206         0.00000000       0.00000000       0.00000000          1
H        10.22086704      14.44656728       4.34654945         0.00000000       0.00000000       0.00000000          1
H        11.52146292      14.56795109       1.87713933         0.00000000       0.00000000       0.00000000          1
6
pbc=[F, F, F] list_num_par=6 frozen=false iter=20000 energy=-1.26974174 Lattice="15.00000000 0.00000000 0.00000000 0.00000000 15.00000000 0.00000000 0.00000000 0.00000000 15.00000000" energy_frozen_part=0.00000000 Properties=species:S:1:pos:R:3:velocities:R:3:Z:I:1
H         4.78575794       4.71685893       3.03463563         0.00000000       0.00000000       0.00000000          1
H         6.71963118       6.70954891       2.72866443         0.00000000       0.00000000       0.00000000          1
H         5.25046303       6.54104022       5.09877555         0.00000000       0.00000000       0.00000000          1
H         4.34358080       6.83241782       1.26456274         0.00000000       0.00000000       0.00000000          1
H         2.87441881       6.66391596       3.63467776         0.00000000       0.00000000       0.00000000          1
H         4.80828681       8.65660435       3.32869744         0.00000000       0.00000000       0.00000000          1
6
pbc=[F, F, F] list_num_par=6 frozen=false iter=20000 energy=-1.26974174 Lattice="15.00000000 0.00000000 0.00000000 0.00000000 15.00000000 0.00000000 0.00000000 0.00000000 15.00000000" energy_frozen_part=0.00000000 Properties=species:S:1:pos:R:3:velocities:R:3:Z:I:1
H         8.73238411      14.45738573       1.98246968         0.00000000       0.00000000       0.00000000          1
H        10.18411924      12.25666899       1.05856500         0.00000000       0.00000000       0.00000000          1
H        11.67268119      12.24618729       3.42253944         0.00000000       0.00000000       0.00000000          1
H         8.88326621      12.13502399       3.52782469         0.00000000       0.00000000       0.00000000          1
H        10.22094305      14.44690196       4.34643767         0.00000000       0.00000000       0.00000000          1
H        11.52179659      14.56854876       1.87717721         0.00000000       0.00000000       0.00000000          1
6
pbc=[F, F, F] list_num_par=6 frozen=false iter=20000 energy=-1.26974174 Lattice="15.00000000 0.00000000 0.00000000 0.00000000 15.00000000 0.00000000 0.00000000 0.00000000 15.00000000" energy_frozen_part=0.00000000 Properties=species:S:1:pos:R:3:velocities:R:3:Z:I:1
H         4.78577819       4.71683136       3.03466403         0.00000000       0.00000000       0.00000000          1
H         6.71957477       6.70957962       2.72862879         0.00000000       0.00000000       0.00000000          1
H         5.25053362       6.54100018       5.09880963         0.00000000       0.00000000       0.00000000          1
H         4.34345063       6.83240158       1.26463850         0.00000000       0.00000000       0.00000000          1
H         2.87440926       6.66381903       3.63482263         0.00000000       0.00000000       0.00000000          1
H         4.80820342       8.65657265       3.32878306         0.00000000       0.00000000       0.00000000          1
6
pbc=[F, F, F] list_num_par=6 frozen=false iter=20000 energy=-1.26974174 Lattice="15.00000000 0.00000000 0.00000000 0.00000000 15.00000000 0.00000000 0.00000000 0.00000000 15.00000000" energy_frozen_part=0.00000000 Properties=species:S:1:pos:R:3:velocities:R:3:Z:I:1
H         8.73203789      14.45715000       1.98275794         0.00000000       0.00000000       0.00000000          1
H        10.18341501      12.25624262       1.05874201         0.00000000       0.00000000       0.00000000          1
H        11.67223007      12.24563440       3.42255106         0.00000000       0.00000000       0.00000000          1
H         8.88281673      12.13480618       3.52815346         0.00000000       0.00000000       0.00000000          1
H        10.22085351      14.44654597       4.34656694         0.00000000       0.00000000       0.00000000          1
H        11.52145135      14.56798406       1.87715177         0.00000000       0.00000000       0.00000000          1
6
pbc=[F, F, F] list_num_par=6 frozen=false iter=20000 energy=-1.26974174 Lattice="15.00000000 0.00000000 0.00000000 0.00000000 15.00000000 0.00000000 0.00000000 0.00000000 15.00000000" energy_frozen_part=0.00000000 Properties=species:S:1:pos:R:3:velocities:R:3:Z:I:1
H         8.73207787      14.45717360       1.98265567         0.00000000       0.00000000       0.00000000          1
H        10.18330533      12.25613875       1.05871880         0.00000000       0.00000000       0.00000000          1
H        11.67210357      12.24548898       3.42253764         0.00000000       0.00000000       0.00000000          1
H         8.88268177      12.13485253       3.52812025         0.00000000       0.00000000       0.00000000          1
H        10.22087198      14.44651793       4.34647901         0.00000000       0.00000000       0.00000000          1
H        11.52149988      14.56780535       1.87707529         0.00000000       0.00000000       0.00000000          1
6
pbc=[F, F, F] list_num_par=6 frozen=false iter=20000 energy=-1.26974174 Lattice="15.00000000 0.00000000 0.00000000 0.00000000 15.00000000 0.00000000 0.00000000 0.00000000 15.00000000" energy_frozen_part=0.00000000 Properties=species:S:1:pos:R:3:velocities:R:3:Z:I:1
H         4.78577539       4.71686054       3.03463600         0.00000000       0.00000000       0.00000000          1
H         6.71963451       6.70954957       2.72864373         0.00000000       0.00000000       0.00000000          1
H         5.25048746       6.54105145       5.09877162         0.00000000       0.00000000       0.00000000          1
H         4.34357897       6.83240909       1.26455530         0.00000000       0.00000000       0.00000000          1
H         2.87443240       6.66389852       3.63468498         0.00000000       0.00000000       0.00000000          1
H         4.80828980       8.65659988       3.32869012         0.00000000       0.00000000       0.00000000          1
6
pbc=[F, F, F] list_num_par=6 frozen=false iter=20000 energy=-1.26974174 Lattice="15.00000000 0.00000000 0.00000000 0.00000000 15.00000000 0.00000000 0.00000000 0.00000000 15.00000000" energy_frozen_part=0.00000000 Properties=species:S:1:pos:R:3:velocities:R:3:Z:I:1
H         8.73236622      14.45737616       1.98247042         0.00000000       0.00000000       0.00000000          1
H        10.18411663      12.25667835       1.05855734         0.00000000       0.00000000       0.00000000          1
H        11.67268405      12.24617954       3.42252573         0.00000000       0.00000000       0.00000000          1
H         8.88326922      12.13500082       3.52782365         0.00000000       0.00000000       0.00000000          1
H        10.22092910      14.44688376       4.34644473         0.00000000       0.00000000       0.00000000          1
H        11.52178448      14.56855310       1.87718300         0.00000000       0.00000000       0.00000000          1
6
pbc=[F, F, F] list_num_par=6 frozen=false iter=20000 energy=-1.26974174 Lattice="15.00000000 0.00000000 0.00000000 0.00000000 15.00000000 0.00000000 0.00000000 0.00000000 15.00000000" energy_frozen_part=0.00000000 Properties=species:S:1:pos:R:3:velocities:R:3:Z:I:1
H         4.78576841       4.71687372       3.03468540         0.00000000       0.00000000       0.00000000          1
H         6.71957944       6.70961505       2.72866747         0.00000000       0.00000000       0.00000000          1
H         5.25049826       6.54104902       5.09882642         0.00000000       0.00000000       0.00000000          1
H         4.34348718       6.83243841       1.26464361         0.00000000       0.00000000       0.00000000          1
H         2.87439997       6.66387143       3.63480364         0.00000000       0.00000000       0.00000000          1
H         4.80820931       8.65662086       3.32878550         0.00000000       0.00000000       0.00000000          1
6
pbc=[F, F, F] list_num_par=6 frozen=false iter=20000 energy=-1.26974174 Lattice="15.00000000 0.00000000 0.00000000 0.00000000 15.00000000 0.00000000 0.00000000 0.00000000 15.00000000" energy_frozen_part=0.00000000 Properties=species:S:1:pos:R:3:velocities:R:3:Z:I:1
H         4.78579187       4.71682707       3.03467157         0.00000000       0.00000000       0.00000000          1
H         6.71957971       6.70958901       2.72862611         0.00000000       0.00000000       0.00000000          1
H         5.25053551       6.54101295       5.09880679         0.00000000       0.00000000       0.00000000          1
H         4.34346021       6.83239688       1.26463558         0.00000000       0.00000000       0.00000000          1
H         2.87441574       6.66381754       3.63481930         0.00000000       0.00000000       0.00000000          1
H         4.80820307       8.65657416       3.32877763         0.00000000       0.00000000       0.00000000          1
6
pbc=[F, F, F] list_num_par=6 frozen=false iter=20000 energy=-1.26974174 Lattice="15.00000000 0.00000000 0.00000000 0.00000000 15.00000000 0.00000000 0.00000000 0.00000000 15.00000000" energy_frozen_part=0.00000000 Properties=species:S:1:pos:R:3:velocities:R:3:Z:I:1
H         4.78576652       4.71687145       3.03464488         0.00000000       0.00000000       0.00000000          1
H         6.71963545       6.70955321       2.72865698         0.00000000       0.00000000       0.00000000          1
H         5.25047861       6.54106812       5.09877703         0.00000000       0.00000000       0.00000000          1
H         4.34358853       6.83241821       1.26455540         0.00000000       0.00000000       0.00000000          1
H         2.87443460       6.66393432       3.63468480         0.00000000       0.00000000       0.00000000          1
H         4.80830555       8.65661631       3.32868501         0.00000000       0.00000000       0.00000000          1
6
pbc=[F, F, F] list_num_par=6 frozen=false iter=20000 energy=-1.26974174 Lattice="15.00000000 0.00000000 0.00000000 0.00000000 15.00000000 0.00000000 0.00000000 0.00000000 15.00000000" energy_frozen_part=0.00000000 Properties=species:S:1:pos:R:3:velocities:R:3:Z:I:1
H         8.73237590      14.45735465       1.98248046         0.00000000       0.00000000       0.00000000          1
H        10.18411768      12.25664259       1.05858006         0.00000000       0.00000000       0.00000000          1
H        11.67269279      12.24617116       3.42254491         0.00000000       0.00000000       0.00000000          1
H         8.88327574      12.13499334       3.52784539         0.00000000       0.00000000       0.00000000          1
H        10.22094151      14.44688260       4.34644104         0.00000000       0.00000000       0.00000000          1
H        11.52179413      14.56852942       1.87717181         0.00000000       0.00000000       0.00000000          1
6
pbc=[F, F, F] list_num_par=6 frozen=false iter=20000 energy=-1.26974174 Lattice="15.00000000 0.00000000 0.00000000 0.00000000 15.00000000 0.00000000 0.00000000 0.00000000 15.00000000" energy_frozen_part=0.00000000 Properties=species:S:1:pos:R:3:velocities:R:3:Z:I:1
H         8.73205657      14.45716079       1.98264937         0.00000000       0.00000000       0.00000000          1
H        10.18330722      12.25614167       1.05870834         0.00000000       0.00000000       0.00000000          1
H        11.67208596      12.24549771       3.42253951         0.00000000       0.00000000       0.00000000          1
H         8.88266635      12.13484204       3.52810012         0.00000000       0.00000000       0.00000000          1
H        10.22084403      14.44651858       4.34647774         0.00000000       0.00000000       0.00000000          1
H        11.52148145      14.56781512       1.87708496         0.00000000       0.00000000       0.00000000          1
6
pbc=[F, F, F] list_num_par=6 frozen=false iter=20000 energy=-1.26974174 Lattice="15.00000000 0.00000000 0.00000000 0.00000000 15.00000000 0.00000000 0.00000000 0.00000000 15.00000000" energy_frozen_part=0.00000000 Properties=species:S:1:pos:R:3:velocities:R:3:Z:I:1
H         8.73203288      14.45714698       1.98274940         0.00000000       0.00000000       0.00000000          1
H        10.18340212      12.25623249       1.05874138         0.00000000       0.00000000       0.00000000          1
H        11.67221825      12.24563088       3.42254834         0.00000000       0.00000000       0.00000000          1
H         8.88279966      12.13479922       3.52814771         0.00000000       0.00000000       0.00000000          1
H        10.22084445      14.44654225       4.34655474         0.00000000       0.00000000       0.00000000          1
H        11.52144914      14.56797665       1.87714714         0.00000000       0.00000000       0.00000000          1
6
pbc=[F, F, F] list_num_par=6 frozen=false iter=20000 energy=-1.26974174 Lattice="15.00000000 0.00000000 0.00000000 0.00000000 15.00000000 0.00000000 0.00000000 0.00000000 15.00000000" energy_frozen_part=0.00000000 Properties=species:S:1:pos:R:3:velocities:R:3:Z:I:1
H         8.73203893      14.45715008       1.98273863         0.00000000       0.00000000       0.00000000          1
H        10.18337786      12.25619854       1.05876994         0.00000000       0.00000000       0.00000000          1
H        11.67219833      12.24560863       3.42257583         0.00000000       0.00000000       0.00000000          1
H         8.88277751      12.13483755       3.52818497         0.00000000       0.00000000       0.00000000          1
H        10.22086627      14.44656203       4.34654935         0.00000000       0.00000000       0.00000000          1
H        11.52146322      14.56792771       1.87713267         0.00000000       0.00000000       0.00000000          1
6
pbc=[F, F, F] list_num_par=6 frozen=false iter=20000 energy=-1.26974174 Lattice="15.00000000 0.00000000 0.00000000 0.00000000 15.00000000 0.00000000 0.00000000 0.00000000 15.00000000" energy_frozen_part=0.00000000 Properties=species:S:1:pos:R:3:velocities:R:3:Z:I:1
H         4.78578865       4.71682804       3.03468837         0.00000000       0.00000000       0.00000000          1
H         6.71957563       6.70958991       2.72862921         0.00000000       0.00000000       0.00000000          1
H         5.25053761       6.54100811       5.09882204         0.00000000       0.00000000       0.00000000          1
H         4.34344891       6.83238785       1.26465131         0.00000000       0.00000000       0.00000000          1
H         2.87441120       6.66380446       3.63484073         0.00000000       0.00000000       0.00000000          1
H         4.80819126       8.65656784       3.32878139         0.00000000       0.00000000       0.00000000          1
6
pbc=[F, F, F] list_num_par=6 frozen=false iter=20000 energy=-1.26974174 Lattice="15.00000000 0.00000000 0.00000000 0.00000000 15.00000000 0.00000000 0.00000000 0.00000000 15.00000000" energy_frozen_part=0.00000000 Properties=species:S:1:pos:R:3:velocities:R:3:Z:I:1
H         8.73207502      14.45712534       1.98269758         0.00000000       0.00000000       0.00000000          1
H        10.18333940      12.25610782       1.05876526         0.00000000       0.00000000       0.00000000          1
H        11.67215085      12.24550223       3.42257639         0.00000000       0.00000000       0.00000000          1
H         8.88272510      12.13482637       3.52817348         0.00000000       0.00000000       0.00000000          1
H        10.22088954      14.44652067       4.34651457         0.00000000       0.00000000       0.00000000          1
H        11.52149435      14.56780235       1.87710333         0.00000000       0.00000000       0.00000000          1
6
pbc=[F, F, F] list_num_par=6 frozen=false iter=20000 energy=-1.26974174 Lattice="15.00000000 0.00000000 0.00000000 0.00000000 15.00000000 0.00000000 0.00000000 0.00000000 15.00000000" energy_frozen_part=0.00000000 Properties=species:S:1:pos:R:3:velocities:R:3:Z:I:1
H         4.78577482       4.71685015       3.03463476         0.00000000       0.00000000       0.00000000          1
H         6.71966912       6.70951316       2.72863693         0.00000000       0.00000000       0.00000000          1
H         5.25047994       6.54107355       5.09874621         0.00000000       0.00000000       0.00000000          1
H         4.34363976       6.83238101       1.26450672         0.00000000       0.00000000       0.00000000          1
H         2.87444773       6.66393056       3.63460846         0.00000000       0.00000000       0.00000000          1
H         4.80834072       8.65659734       3.32861985         0.00000000       0.00000000       0.00000000          1
6
pbc=[F, F, F] list_num_par=6 frozen=false iter=20000 energy=-1.26974174 Lattice="15.00000000 0.00000000 0.00000000 0.00000000 15.00000000 0.00000000 0.00000000 0.00000000 15.00000000" energy_frozen_part=0.00000000 Properties=species:S:1:pos:R:3:velocities:R:3:Z:I:1
H         8.73238650      14.45732429       1.98248686         0.00000000       0.00000000       0.00000000          1
H        10.18418473      12.25662836       1.05864374         0.00000000       0.00000000       0.00000000          1
H        11.67268105      12.24618536       3.42265348         0.00000000       0.00000000       0.00000000          1
H         8.88326639      12.13497401       3.52787250         0.00000000       0.00000000       0.00000000          1
H        10.22088504      14.44687818       4.34649830         0.00000000       0.00000000       0.00000000          1
H        11.52180661      14.56853185       1.87726406         0.00000000       0.00000000       0.00000000          1
6
pbc=[F, F, F] list_num_par=6 frozen=false iter=20000 energy=-1.26974174 Lattice="15.00000000 0.00000000 0.00000000 0.00000000 15.00000000 0.00000000 0.00000000 0.00000000 15.00000000" energy_frozen_part=0.00000000 Properties=species:S:1:pos:R:3:velocities:R:3:Z:I:1
H         8.73203348      14.45716041       1.98273163         0.00000000       0.00000000       0.00000000          1
H        10.18339894      12.25624308       1.05873806         0.00000000       0.00000000       0.00000000          1
H        11.67220045      12.24562458       3.42256058         0.00000000       0.00000000       0.00000000          1
H         8.88277996      12.13481665       3.52813795         0.00000000       0.00000000       0.00000000          1
H        10.22083235      14.44654920       4.34655059         0.00000000       0.00000000       0.00000000          1
H        11.52144803      14.56797025       1.87715749         0.00000000       0.00000000       0.00000000          1
6
pbc=[F, F, F] list_num_par=6 frozen=false iter=20000 energy=-1.26974174 Lattice="15.00000000 0.00000000 0.00000000 0.00000000 15.00000000 0.00000000 0.00000000 0.00000000 15.00000000" energy_frozen_part=0.00000000 Properties=species:S:1:pos:R:3:velocities:R:3:Z:I:1
H         8.73210082      14.45716723       1.98276612         0.00000000       0.00000000       0.00000000          1
H        10.18335199      12.25615590       1.05878796         0.00000000       0.00000000       0.00000000          1
H        11.67223673      12.24557106       3.42255289         0.00000000       0.00000000       0.00000000          1
H         8.88281763      12.13487205       3.52824281         0.00000000       0.00000000       0.00000000          1
H        10.22099252      14.44658335       4.34652995         0.00000000       0.00000000       0.00000000          1
H        11.52152082      14.56786549       1.87707634         0.00000000       0.00000000       0.00000000          1
6
pbc=[F, F, F] list_num_par=6 frozen=false iter=20000 energy=-1.26974174 Lattice="15.00000000 0.00000000 0.00000000 0.00000000 15.00000000 0.00000000 0.00000000 0.00000000 15.00000000" energy_frozen_part=0.00000000 Properties=species:S:1:pos:R:3:velocities:R:3:Z:I:1
H         4.78578442       4.71685786       3.03462364         0.00000000       0.00000000       0.00000000          1
H         6.71962554       6.70956556       2.72862644         0.00000000       0.00000000       0.00000000          1
H         5.25049551       6.54104990       5.09876496         0.00000000       0.00000000       0.00000000          1
H         4.34356537       6.83241171       1.26455044         0.00000000       0.00000000       0.00000000          1
H         2.87443124       6.66389132       3.63468650         0.00000000       0.00000000       0.00000000          1
H         4.80827947       8.65659842       3.32868499         0.00000000       0.00000000       0.00000000          1
6
pbc=[F, F, F] list_num_par=6 frozen=false iter=20000 energy=-1.26974174 Lattice="15.00000000 0.00000000 0.00000000 0.00000000 15.00000000 0.00000000 0.00000000 0.00000000 15.00000000" energy_frozen_part=0.00000000 Properties=species:S:1:pos:R:3:velocities:R:3:Z:I:1
H         4.78574834       4.71685230       3.03463545         0.00000000       0.00000000       0.00000000          1
H         6.71961664       6.70954090       2.72863242         0.00000000       0.00000000       0.00000000          1
H         5.25047579       6.54104579       5.09876347         0.00000000       0.00000000       0.00000000          1
H         4.34356306       6.83239649       1.26454944         0.00000000       0.00000000       0.00000000          1
H         2.87442059       6.66391237       3.63467884         0.00000000       0.00000000       0.00000000          1
H         4.80828361       8.65660152       3.32867748         0.00000000       0.00000000       0.00000000          1
6
pbc=[F, F, F] list_num_par=6 frozen=false iter=20000 energy=-1.26974174 Lattice="15.00000000 0.00000000 0.00000000 0.00000000 15.00000000 0.00000000 0.00000000 0.00000000 15.00000000" energy_frozen_part=0.00000000 Properties=species:S:1:pos:R:3:velocities:R:3:Z:I:1
H         4.78577366       4.71687951       3.03463121         0.00000000       0.00000000       0.00000000          1
H         6.71963308       6.70956911       2.72862462         0.00000000       0.00000000       0.00000000          1
H         5.25049361       6.54108533       5.09875503         0.00000000       0.00000000       0.00000000          1
H         4.34357926       6.83242249       1.26453838         0.00000000       0.00000000       0.00000000          1
H         2.87443995       6.66393312       3.63466805         0.00000000       0.00000000       0.00000000          1
H         4.80829155       8.65662935       3.32866153         0.00000000       0.00000000       0.00000000          1
6
pbc=[F, F, F] list_num_par=6 frozen=false iter=20000 energy=-1.26974174 Lattice="15.00000000 0.00000000 0.00000000 0.00000000 15.00000000 0.00000000 0.00000000 0.00000000 15.00000000" energy_frozen_part=0.00000000 Properties=species:S:1:pos:R:3:velocities:R:3:Z:I:1
H         8.73206559      14.45718370       1.98270608         0.00000000       0.00000000       0.00000000          1
H        10.18338590      12.25622384       1.05872739         0.00000000       0.00000000       0.00000000          1
H        11.67213530      12.24555933       3.42258041         0.00000000       0.00000000       0.00000000          1
H         8.88270891      12.13483028       3.52810406         0.00000000       0.00000000       0.00000000          1
H        10.22081573      14.44651399       4.34655242         0.00000000       0.00000000       0.00000000          1
H        11.52148929      14.56791418       1.87718154         0.00000000       0.00000000       0.00000000          1
6
pbc=[F, F, F] list_num_par=6 frozen=false iter=20000 energy=-1.26974174 Lattice="15.00000000 0.00000000 0.00000000 0.00000000 15.00000000 0.00000000 0.00000000 0.00000000 15.00000000" energy_frozen_part=0.00000000 Properties=species:S:1:pos:R:3:velocities:R:3:Z:I:1
H         8.73237570      14.45734288       1.98253555         0.00000000       0.00000000       0.00000000          1
H        10.18412348      12.25663848       1.05862666         0.00000000       0.00000000       0.00000000          1
H        11.67268212      12.24615858       3.42260164         0.00000000       0.00000000       0.00000000          1
H         8.88326808      12.13498037       3.52789672         0.00000000       0.00000000       0.00000000          1
H        10.22093643      14.44686443       4.34650746         0.00000000       0.00000000       0.00000000          1
H        11.52178569      14.56852508       1.87723687         0.00000000       0.00000000       0.00000000          1
6
pbc=[F, F, F] list_num_par=6 frozen=false iter=20000 energy=-1.26974174 Lattice="15.00000000 0.00000000 0.00000000 0.00000000 15.00000000 0.00000000 0.00000000 0.00000000 15.00000000" energy_frozen_part=0.00000000 Properties=species:S:1:pos:R:3:velocities:R:3:Z:I:1
H         8.73239095      14.45732588       1.98249513         0.00000000       0.00000000       0.00000000          1
H        10.18418673      12.25663648       1.05863033         0.00000000       0.00000000       0.00000000          1
H        11.67269228      12.24617321       3.42263382         0.00000000       0.00000000       0.00000000          1
H         8.88327171      12.13497381       3.52786522         0.00000000       0.00000000       0.00000000          1
H        10.22090192      14.44687335       4.34649970         0.00000000       0.00000000       0.00000000          1
H        11.52180940      14.56853649       1.87726884         0.00000000       0.00000000       0.00000000          1
6
pbc=[F, F, F] list_num_par=6 frozen=false iter=20000 energy=-1.26974174 Lattice="15.00000000 0.00000000 0.00000000 0.00000000 15.00000000 0.00000000 0.00000000 0.00000000 15.00000000" energy_frozen_part=0.00000000 Properties=species:S:1:pos:R:3:velocities:R:3:Z:I:1
H         4.78578878       4.71683911       3.03468663         0.00000000       0.00000000       0.00000000          1
H         6.71956280       6.70961241       2.72863771         0.00000000       0.00000000       0.00000000          1