6
pbc=[F, F, F] list_num_par=6 frozen=false iter=20000 energy=-1.26974174 Lattice="15.00000000 0.00000000 0.00000000 0.00000000 15.00000000 0.00000000 0.00000000 0.00000000 15.00000000" energy_frozen_part=0.00000000 Properties=species:S:1:pos:R:3:velocities:R:3:Z:I:1
H        11.62715485      10.23353354       0.31655926         0.00000000       0.00000000       0.00000000          1
H        14.39959142      10.27888500       3.13083518         0.00000000       0.00000000       0.00000000          1
H        11.61864870      10.01469047       3.10157512         0.00000000       0.00000000       0.00000000          1
H        12.82551383      12.21664153       1.87716781         0.00000000       0.00000000       0.00000000          1
H        13.20123150       8.29577104       1.57021883         0.00000000       0.00000000       0.00000000          1
H        14.40809228      10.49772619       0.34581374         0.00000000       0.00000000       0.00000000          1
6
pbc=[F, F, F] list_num_par=6 frozen=false iter=20000 energy=-1.26974174 Lattice="15.00000000 0.00000000 0.00000000 0.00000000 15.00000000 0.00000000 0.00000000 0.00000000 15.00000000" energy_frozen_part=0.00000000 Properties=species:S:1:pos:R:3:velocities:R:3:Z:I:1
H        11.62554745      10.23320285       0.31707662         0.00000000       0.00000000       0.00000000          1
H        14.39934444      10.28139306       3.12995734         0.00000000       0.00000000       0.00000000          1
H        11.61857959      10.01519482       3.10217082         0.00000000       0.00000000       0.00000000          1
H        12.82325030      12.21764370       1.87650080         0.00000000       0.00000000       0.00000000          1
H        13.20163643       8.29696173       1.57053733         0.00000000       0.00000000       0.00000000          1
H        14.40630671      10.49941435       0.34487104         0.00000000       0.00000000       0.00000000          1
6
pbc=[F, F, F] list_num_par=6 frozen=false iter=20000 energy=-1.26974174 Lattice="15.00000000 0.00000000 0.00000000 0.00000000 15.00000000 0.00000000 0.00000000 0.00000000 15.00000000" energy_frozen_part=0.00000000 Properties=species:S:1:pos:R:3:velocities:R:3:Z:I:1
H        11.62539665      10.23386608       0.31782571         0.00000000       0.00000000       0.00000000          1
H        14.39933316      10.28088906       3.13057765         0.00000000       0.00000000       0.00000000          1
H        11.61864020      10.01393502       3.10275528         0.00000000       0.00000000       0.00000000          1
H        12.82263531      12.21756409       1.87853928         0.00000000       0.00000000       0.00000000          1
H        13.20209628       8.29718748       1.56986190         0.00000000       0.00000000       0.00000000          1
H        14.40608581      10.50082383       0.34564093         0.00000000       0.00000000       0.00000000          1
6
pbc=[F, F, F] list_num_par=6 frozen=false iter=20000 energy=-1.26974174 Lattice="15.00000000 0.00000000 0.00000000 0.00000000 15.00000000 0.00000000 0.00000000 0.00000000 15.00000000" energy_frozen_part=0.00000000 Properties=species:S:1:pos:R:3:velocities:R:3:Z:I:1
H        11.62545146      10.23378227       0.31780684         0.00000000       0.00000000       0.00000000          1
H        14.39932567      10.28094688       3.13063645         0.00000000       0.00000000       0.00000000          1
H        11.61864796      10.01385641       3.10274239         0.00000000       0.00000000       0.00000000          1
H        12.82256472      12.21754223       1.87854318         0.00000000       0.00000000       0.00000000          1
H        13.20221997       8.29718513       1.56988849         0.00000000       0.00000000       0.00000000          1
H        14.40613316      10.50087165       0.34569900         0.00000000       0.00000000       0.00000000          1
6
pbc=[F, F, F] list_num_par=6 frozen=false iter=20000 energy=-1.26974174 Lattice="15.00000000 0.00000000 0.00000000 0.00000000 15.00000000 0.00000000 0.00000000 0.00000000 15.00000000" energy_frozen_part=0.00000000 Properties=species:S:1:pos:R:3:velocities:R:3:Z:I:1
H        11.62539301      10.23386456       0.31782646         0.00000000       0.00000000       0.00000000          1
H        14.39931668      10.28087451       3.13059719         0.00000000       0.00000000       0.00000000          1
H        11.61862371      10.01391814       3.10275555         0.00000000       0.00000000       0.00000000          1
H        12.82263041      12.21755494       1.87856023         0.00000000       0.00000000       0.00000000          1
H        13.20208571       8.29718825       1.56986212         0.00000000       0.00000000       0.00000000          1
H        14.40607838      10.50082402       0.34566074         0.00000000       0.00000000       0.00000000          1
6
pbc=[F, F, F] list_num_par=6 frozen=false iter=20000 energy=-1.26974174 Lattice="15.00000000 0.00000000 0.00000000 0.00000000 15.00000000 0.00000000 0.00000000 0.00000000 15.00000000" energy_frozen_part=0.00000000 Properties=species:S:1:pos:R:3:velocities:R:3:Z:I:1
H        11.62539575      10.23386221       0.31782251         0.00000000       0.00000000       0.00000000          1
H        14.39933337      10.28089763       3.13058237         0.00000000       0.00000000       0.00000000          1
H        11.61864363      10.01393738       3.10276344         0.00000000       0.00000000       0.00000000          1
H        12.82263119      12.21756018       1.87854081         0.00000000       0.00000000       0.00000000          1
H        13.20209466       8.29720010       1.56986686         0.00000000       0.00000000       0.00000000          1
H        14.40608976      10.50082294       0.34564110         0.00000000       0.00000000       0.00000000          1
6
pbc=[F, F, F] list_num_par=6 frozen=false iter=20000 energy=-1.26974174 Lattice="15.00000000 0.00000000 0.00000000 0.00000000 15.00000000 0.00000000 0.00000000 0.00000000 15.00000000" energy_frozen_part=0.00000000 Properties=species:S:1:pos:R:3:velocities:R:3:Z:I:1
H        11.62593412      10.23357357       0.31674644         0.00000000       0.00000000       0.00000000          1
H        14.39912819      10.28148206       3.13022352         0.00000000       0.00000000       0.00000000          1
H        11.61836541      10.01534177       3.10180689         0.00000000       0.00000000       0.00000000          1
H        12.82334711      12.21786752       1.87657650         0.00000000       0.00000000       0.00000000          1
H        13.20171092       8.29718834       1.57038653         0.00000000       0.00000000       0.00000000          1
H        14.40670017      10.49971383       0.34515770         0.00000000       0.00000000       0.00000000          1
6
pbc=[F, F, F] list_num_par=6 frozen=false iter=20000 energy=-1.26974174 Lattice="15.00000000 0.00000000 0.00000000 0.00000000 15.00000000 0.00000000 0.00000000 0.00000000 15.00000000" energy_frozen_part=0.00000000 Properties=species:S:1:pos:R:3:velocities:R:3:Z:I:1
H        11.62714870      10.23351866       0.31655018         0.00000000       0.00000000       0.00000000          1
H        14.39958592      10.27889761       3.13081975         0.00000000       0.00000000       0.00000000          1
H        11.61865198      10.01467795       3.10156808         0.00000000       0.00000000       0.00000000          1
H        12.82549503      12.21664269       1.87715660         0.00000000       0.00000000       0.00000000          1
H        13.20124242       8.29577014       1.57021692         0.00000000       0.00000000       0.00000000          1
H        14.40808954      10.49773030       0.34580827         0.00000000       0.00000000       0.00000000          1
6
pbc=[F, F, F] list_num_par=6 frozen=false iter=20000 energy=-1.26974174 Lattice="15.00000000 0.00000000 0.00000000 0.00000000 15.00000000 0.00000000 0.00000000 0.00000000 15.00000000" energy_frozen_part=0.00000000 Properties=species:S:1:pos:R:3:velocities:R:3:Z:I:1
H        11.62530451      10.23397815       0.31829825         0.00000000       0.00000000       0.00000000          1
H        14.39928593      10.28045793       3.13102699         0.00000000       0.00000000       0.00000000          1
H        11.61852633      10.01421197       3.10324453         0.00000000       0.00000000       0.00000000          1
H        12.82306636      12.21745865       1.87889041         0.00000000       0.00000000       0.00000000          1
H        13.20152403       8.29698215       1.57043904         0.00000000       0.00000000       0.00000000          1
H        14.40606592      10.50023339       0.34607718         0.00000000       0.00000000       0.00000000          1
6
pbc=[F, F, F] list_num_par=6 frozen=false iter=20000 energy=-1.26974174 Lattice="15.00000000 0.00000000 0.00000000 0.00000000 15.00000000 0.00000000 0.00000000 0.00000000 15.00000000" energy_frozen_part=0.00000000 Properties=species:S:1:pos:R:3:velocities:R:3:Z:I:1
H        11.62534023      10.23396618       0.31829833         0.00000000       0.00000000       0.00000000          1
H        14.39927944      10.28049392       3.13106419         0.00000000       0.00000000       0.00000000          1
H        11.61852432      10.01419479       3.10324394         0.00000000       0.00000000       0.00000000          1
H        12.82305265      12.21746415       1.87890413         0.00000000       0.00000000       0.00000000          1
H        13.20157065       8.29698586       1.57045546         0.00000000       0.00000000       0.00000000          1
H        14.40610074      10.50025087       0.34611993         0.00000000       0.00000000       0.00000000          1
6
pbc=[F, F, F] list_num_par=6 frozen=false iter=20000 energy=-1.26974174 Lattice="15.00000000 0.00000000 0.00000000 0.00000000 15.00000000 0.00000000 0.00000000 0.00000000 15.00000000" energy_frozen_part=0.00000000 Properties=species:S:1:pos:R:3:velocities:R:3:Z:I:1
H        11.62530386      10.23400463       0.31831190         0.00000000       0.00000000       0.00000000          1
H        14.39930128      10.28044421       3.13102104         0.00000000       0.00000000       0.00000000          1
H        11.61853134      10.01423143       3.10325854         0.00000000       0.00000000       0.00000000          1
H        12.82309207      12.21747225       1.87890586         0.00000000       0.00000000       0.00000000          1
H        13.20150280       8.29698299       1.57043340         0.00000000       0.00000000       0.00000000          1
H        14.40606275      10.50022150       0.34607456         0.00000000       0.00000000       0.00000000          1
6
pbc=[F, F, F] list_num_par=6 frozen=false iter=20000 energy=-1.26974174 Lattice="15.00000000 0.00000000 0.00000000 0.00000000 15.00000000 0.00000000 0.00000000 0.00000000 15.00000000" energy_frozen_part=0.00000000 Properties=species:S:1:pos:R:3:velocities:R:3:Z:I:1
H        11.63415373      10.23625900       0.31301380         0.00000000       0.00000000       0.00000000          1
H        14.39920554      10.27443967       3.13465774         0.00000000       0.00000000       0.00000000          1
H        11.61820096      10.01186627       3.09755745         0.00000000       0.00000000       0.00000000          1
H        12.82950813      12.21557582       1.88072265         0.00000000       0.00000000       0.00000000          1
H        13.20384928       8.29512375       1.56693744         0.00000000       0.00000000       0.00000000          1
H        14.41515920      10.49882963       0.35010948         0.00000000       0.00000000       0.00000000          1
6
pbc=[F, F, F] list_num_par=6 frozen=false iter=20000 energy=-1.26974174 Lattice="15.00000000 0.00000000 0.00000000 0.00000000 15.00000000 0.00000000 0.00000000 0.00000000 15.00000000" energy_frozen_part=0.00000000 Properties=species:S:1:pos:R:3:velocities:R:3:Z:I:1
H        11.62535929      10.23385144       0.31786973         0.00000000       0.00000000       0.00000000          1
H        14.39932888      10.28082505       3.13060697         0.00000000       0.00000000       0.00000000          1
H        11.61863946      10.01377861       3.10279935         0.00000000       0.00000000       0.00000000          1
H        12.82255063      12.21749955       1.87867812         0.00000000       0.00000000       0.00000000          1
H        13.20213109       8.29716661       1.56980382         0.00000000       0.00000000       0.00000000          1
H        14.40604444      10.50088974       0.34567884         0.00000000       0.00000000       0.00000000          1
6
pbc=[F, F, F] list_num_par=6 frozen=false iter=20000 energy=-1.26974174 Lattice="15.00000000 0.00000000 0.00000000 0.00000000 15.00000000 0.00000000 0.00000000 0.00000000 15.00000000" energy_frozen_part=0.00000000 Properties=species:S:1:pos:R:3:velocities:R:3:Z:I:1
H        11.62555809      10.23322586       0.31706985         0.00000000       0.00000000       0.00000000          1
H        14.39934708      10.28138744       3.12995898         0.00000000       0.00000000       0.00000000          1
H        11.61858532      10.01519986       3.10215831         0.00000000       0.00000000       0.00000000          1
H        12.82326754      12.21764893       1.87650597         0.00000000       0.00000000       0.00000000          1
H        13.20163921       8.29696406       1.57053052         0.00000000       0.00000000       0.00000000          1
H        14.40631935      10.49941993       0.34487801         0.00000000       0.00000000       0.00000000          1
6
pbc=[F, F, F] list_num_par=6 frozen=false iter=20000 energy=-1.26974174 Lattice="15.00000000 0.00000000 0.00000000 0.00000000 15.00000000 0.00000000 0.00000000 0.00000000 15.00000000" energy_frozen_part=0.00000000 Properties=species:S:1:pos:R:3:velocities:R:3:Z:I:1
H        11.62533487      10.23395625       0.31830837         0.00000000       0.00000000       0.00000000          1
H        14.39930632      10.28046365       3.13105010         0.00000000       0.00000000       0.00000000          1
H        11.61854906      10.01419971       3.10325579         0.00000000       0.00000000       0.00000000          1
H        12.82307602      12.21745337       1.87889458         0.00000000       0.00000000       0.00000000          1
H        13.20156135       8.29697021       1.57045617         0.00000000       0.00000000       0.00000000          1
H        14.40610019      10.50022257       0.34610344         0.00000000       0.00000000       0.00000000          1
6
pbc=[F, F, F] list_num_par=6 frozen=false iter=20000 energy=-1.26974174 Lattice="15.00000000 0.00000000 0.00000000 0.00000000 15.00000000 0.00000000 0.00000000 0.00000000 15.00000000" energy_frozen_part=0.00000000 Properties=species:S:1:pos:R:3:velocities:R:3:Z:I:1
H        11.62535546      10.23384009       0.31788035         0.00000000       0.00000000       0.00000000          1
H        14.39933352      10.28083948       3.13060839         0.00000000       0.00000000       0.00000000          1
H        11.61865206      10.01378247       3.10280695         0.00000000       0.00000000       0.00000000          1
H        12.82255241      12.21750697       1.87867140         0.00000000       0.00000000       0.00000000          1
H        13.20213918       8.29716762       1.56981227         0.00000000       0.00000000       0.00000000          1
H        14.40604475      10.50089697       0.34568189         0.00000000       0.00000000       0.00000000          1
6
pbc=[F, F, F] list_num_par=6 frozen=false iter=20000 energy=-1.26974174 Lattice="15.00000000 0.00000000 0.00000000 0.00000000 15.00000000 0.00000000 0.00000000 0.00000000 15.00000000" energy_frozen_part=0.00000000 Properties=species:S:1:pos:R:3:velocities:R:3:Z:I:1
H        11.62537899      10.23383374       0.31789843         0.00000000       0.00000000       0.00000000          1
H        14.39932260      10.28086316       3.13064556         0.00000000       0.00000000       0.00000000          1
H        11.61864462      10.01383779       3.10283142         0.00000000       0.00000000       0.00000000          1
H        12.82257767      12.21752399       1.87865564         0.00000000       0.00000000       0.00000000          1
H        13.20212883       8.29716835       1.56988455         0.00000000       0.00000000       0.00000000          1
H        14.40606562      10.50085610       0.34572101         0.00000000       0.00000000       0.00000000          1
6
pbc=[F, F, F] list_num_par=6 frozen=false iter=20000 energy=-1.26974174 Lattice="15.00000000 0.00000000 0.00000000 0.00000000 15.00000000 0.00000000 0.00000000 0.00000000 15.00000000" energy_frozen_part=0.00000000 Properties=species:S:1:pos:R:3:velocities:R:3:Z:I:1
H        11.63408837      10.23630606       0.31300117         0.00000000       0.00000000       0.00000000          1
H        14.39919319      10.27437185       3.13458808         0.00000000       0.00000000       0.00000000          1
H        11.61818803      10.01183596       3.09753438         0.00000000       0.00000000       0.00000000          1
H        12.82949619      12.21556774       1.88074264         0.00000000       0.00000000       0.00000000          1
H        13.20378844       8.29511252       1.56683642         0.00000000       0.00000000       0.00000000          1
H        14.41509909      10.49885042       0.35005210         0.00000000       0.00000000       0.00000000          1
6
pbc=[F, F, F] list_num_par=6 frozen=false iter=20000 energy=-1.26974174 Lattice="15.00000000 0.00000000 0.00000000 0.00000000 15.00000000 0.00000000 0.00000000 0.00000000 15.00000000" energy_frozen_part=0.00000000 Properties=species:S:1:pos:R:3:velocities:R:3:Z:I:1
H        11.62546077      10.23378247       0.31779337         0.00000000       0.00000000       0.00000000          1
H        14.39933147      10.28095215       3.13062533         0.00000000       0.00000000       0.00000000          1
H        11.61865198      10.01385321       3.10273176         0.00000000       0.00000000       0.00000000          1
H        12.82256664      12.21754060       1.87854385         0.00000000       0.00000000       0.00000000          1
H        13.20222739       8.29719535       1.56987375         0.00000000       0.00000000       0.00000000          1
H        14.40614030      10.50088391       0.34567994         0.00000000       0.00000000       0.00000000          1
6
pbc=[F, F, F] list_num_par=6 frozen=false iter=20000 energy=-1.26974174 Lattice="15.00000000 0.00000000 0.00000000 0.00000000 15.00000000 0.00000000 0.00000000 0.00000000 15.00000000" energy_frozen_part=0.00000000 Properties=species:S:1:pos:R:3:velocities:R:3:Z:I:1
H        11.62545507      10.23378572       0.31780305         0.00000000       0.00000000       0.00000000          1
H        14.39932314      10.28095490       3.13063546         0.00000000       0.00000000       0.00000000          1
H        11.61864915      10.01386022       3.10273859         0.00000000       0.00000000       0.00000000          1
H        12.82256253      12.21754424       1.87854358         0.00000000       0.00000000       0.00000000          1
H        13.20221673       8.29719199       1.56989200         0.00000000       0.00000000       0.00000000          1
H        14.40613432      10.50086503       0.34569317         0.00000000       0.00000000       0.00000000          1
6
pbc=[F, F, F] list_num_par=6 frozen=false iter=20000 energy=-1.26974174 Lattice="15.00000000 0.00000000 0.00000000 0.00000000 15.00000000 0.00000000 0.00000000 0.00000000 15.00000000" energy_frozen_part=0.00000000 Properties=species:S:1:pos:R:3:velocities:R:3:Z:I:1
H        11.62529222      10.23401587       0.31831227         0.00000000       0.00000000       0.00000000          1
H        14.39930295      10.28045038       3.13100654         0.00000000       0.00000000       0.00000000          1
H        11.61853391      10.01425016       3.10326308         0.00000000       0.00000000       0.00000000          1
H        12.82310134      12.21747936       1.87889873         0.00000000       0.00000000       0.00000000          1
H        13.20148935       8.29698841       1.57043051         0.00000000       0.00000000       0.00000000          1
H        14.40605607      10.50021930       0.34605861         0.00000000       0.00000000       0.00000000          1
6
pbc=[F, F, F] list_num_par=6 frozen=false iter=20000 energy=-1.26974174 Lattice="15.00000000 0.00000000 0.00000000 0.00000000 15.00000000 0.00000000 0.00000000 0.00000000 15.00000000" energy_frozen_part=0.00000000 Properties=species:S:1:pos:R:3:velocities:R:3:Z:I:1
H        11.62531396      10.23402446       0.31832465         0.00000000       0.00000000       0.00000000          1
H        14.39931081      10.28039397       3.13104130         0.00000000       0.00000000       0.00000000          1
H        11.61854370      10.01418256       3.10327159         0.00000000       0.00000000       0.00000000          1
H        12.82310938      12.21744933       1.87896710         0.00000000       0.00000000       0.00000000          1
H        13.20150800       8.29696647       1.57041206         0.00000000       0.00000000       0.00000000          1
H        14.40608094      10.50022988       0.34609904         0.00000000       0.00000000       0.00000000          1
6
pbc=[F, F, F] list_num_par=6 frozen=false iter=20000 energy=-1.26974174 Lattice="15.00000000 0.00000000 0.00000000 0.00000000 15.00000000 0.00000000 0.00000000 0.00000000 15.00000000" energy_frozen_part=0.00000000 Properties=species:S:1:pos:R:3:velocities:R:3:Z:I:1
H        11.62591237      10.23358038       0.31672865         0.00000000       0.00000000       0.00000000          1
H        14.39912875      10.28144170       3.13018466         0.00000000       0.00000000       0.00000000          1
H        11.61836374      10.01530544       3.10179184         0.00000000       0.00000000       0.00000000          1
H        12.82334254      12.21783927       1.87657614         0.00000000       0.00000000       0.00000000          1
H        13.20169762       8.29717125       1.57033410         0.00000000       0.00000000       0.00000000          1
H        14.40667689      10.49969948       0.34511750         0.00000000       0.00000000       0.00000000          1
6
pbc=[F, F, F] list_num_par=6 frozen=false iter=20000 energy=-1.26974174 Lattice="15.00000000 0.00000000 0.00000000 0.00000000 15.00000000 0.00000000 0.00000000 0.00000000 15.00000000" energy_frozen_part=0.00000000 Properties=species:S:1:pos:R:3:velocities:R:3:Z:I:1
H        11.62536734      10.23384406       0.31789621         0.00000000       0.00000000       0.00000000          1
H        14.39932150      10.28087587       3.13064710         0.00000000       0.00000000       0.00000000          1
H        11.61863871      10.01385356       3.10283051         0.00000000       0.00000000       0.00000000          1
H        12.82256718      12.21753599       1.87865465         0.00000000       0.00000000       0.00000000          1
H        13.20212488       8.29718530       1.56989412         0.00000000       0.00000000       0.00000000          1
H        14.40604815      10.50086429       0.34571523         0.00000000       0.00000000       0.00000000          1
6
pbc=[F, F, F] list_num_par=6 frozen=false iter=20000 energy=-1.26974174 Lattice="15.00000000 0.00000000 0.00000000 0.00000000 15.00000000 0.00000000 0.00000000 0.00000000 15.00000000" energy_frozen_part=0.00000000 Properties=species:S:1:pos:R:3:velocities:R:3:Z:I:1
H        11.62542017      10.23376621       0.31785131         0.00000000       0.00000000       0.00000000          1
H        14.39938018      10.28091487       3.13059071         0.00000000       0.00000000       0.00000000          1
H        11.61869677      10.01383983       3.10278377         0.00000000       0.00000000       0.00000000          1
H        12.82259280      12.21751922       1.87856375         0.00000000       0.00000000       0.00000000          1
H        13.20221861       8.29716481       1.56988562         0.00000000       0.00000000       0.00000000          1
H        14.40609707      10.50084526       0.34565402         0.00000000       0.00000000       0.00000000          1
6
pbc=[F, F, F] list_num_par=6 frozen=false iter=20000 energy=-1.26974174 Lattice="15.00000000 0.00000000 0.00000000 0.00000000 15.00000000 0.00000000 0.00000000 0.00000000 15.00000000" energy_frozen_part=0.00000000 Properties=species:S:1:pos:R:3:velocities:R:3:Z:I:1
H        11.63416033      10.23626715       0.31301099         0.00000000       0.00000000       0.00000000          1
H        14.39920542      10.27444283       3.13465062         0.00000000       0.00000000       0.00000000          1
H        11.61820350      10.01187812       3.09756092         0.00000000       0.00000000       0.00000000          1
H        12.82951636      12.21558189       1.88071712         0.00000000       0.00000000       0.00000000          1
H        13.20384498       8.29513312       1.56694170         0.00000000       0.00000000       0.00000000          1
H        14.41516114      10.49883226       0.35010648         0.00000000       0.00000000       0.00000000          1
6
pbc=[F, F, F] list_num_par=6 frozen=false iter=20000 energy=-1.26974174 Lattice="15.00000000 0.00000000 0.00000000 0.00000000 15.00000000 0.00000000 0.00000000 0.00000000 15.00000000" energy_frozen_part=0.00000000 Properties=species:S:1:pos:R:3:velocities:R:3:Z:I:1
H        11.63410772      10.23632201       0.31299594         0.00000000       0.00000000       0.00000000          1
H        14.39918784      10.27437045       3.13458624         0.00000000       0.00000000       0.00000000          1
H        11.61818843      10.01183547       3.09753041         0.00000000       0.00000000       0.00000000          1
H        12.82951088      12.21557193       1.88075229         0.00000000       0.00000000       0.00000000          1
H        13.20378885       8.29512036       1.56683262         0.00000000       0.00000000       0.00000000          1
H        14.41510764      10.49885202       0.35005297         0.00000000       0.00000000       0.00000000          1
6
pbc=[F, F, F] list_num_par=6 frozen=false iter=20000 energy=-1.26974174 Lattice="15.00000000 0.00000000 0.00000000 0.00000000 15.00000000 0.00000000 0.00000000 0.00000000 15.00000000" energy_frozen_part=0.00000000 Properties=species:S:1:pos:R:3:velocities:R:3:Z:I:1
H        11.62532355      10.23402411       0.31831204         0.00000000       0.00000000       0.00000000          1
H        14.39930459      10.28038814       3.13104539         0.00000000       0.00000000       0.00000000          1
H        11.61854255      10.01420513       3.10326023         0.00000000       0.00000000       0.00000000          1
H        12.82313299      12.21744751       1.87894769         0.00000000       0.00000000       0.00000000          1
H        13.20150030       8.29696515       1.57041781         0.00000000       0.00000000       0.00000000          1
H        14.40609047      10.50021044       0.34610507         0.00000000       0.00000000       0.00000000          1
6
pbc=[F, F, F] list_num_par=6 frozen=false iter=20000 energy=-1.26974174 Lattice="15.00000000 0.00000000 0.00000000 0.00000000 15.00000000 0.00000000 0.00000000 0.00000000 15.00000000" energy_frozen_part=0.00000000 Properties=species:S:1:pos:R:3:velocities:R:3:Z:I:1
H        11.62543670      10.23378591       0.31781788         0.00000000       0.00000000       0.00000000          1
H        14.39932245      10.28094775       3.13062821         0.00000000       0.00000000       0.00000000          1
H        11.61864647      10.01385554       3.10275443         0.00000000       0.00000000       0.00000000          1
H        12.82255590      12.21754219       1.87855964         0.00000000       0.00000000       0.00000000          1
H        13.20220688       8.29719352       1.56989153         0.00000000       0.00000000       0.00000000          1
H        14.40611922      10.50086903       0.34569239         0.00000000       0.00000000       0.00000000          1
6
pbc=[F, F, F] list_num_par=6 frozen=false iter=20000 energy=-1.26974174 Lattice="15.00000000 0.00000000 0.00000000 0.00000000 15.00000000 0.00000000 0.00000000 0.00000000 15.00000000" energy_frozen_part=0.00000000 Properties=species:S:1:pos:R:3:velocities:R:3:Z:I:1
H        11.62537289      10.23383992       0.31790320         0.00000000       0.00000000       0.00000000          1
H        14.39934132      10.28087917       3.13064519         0.00000000       0.00000000       0.00000000          1
H        11.61865521      10.01383797       3.10282829         0.00000000       0.00000000       0.00000000          1
H        12.82257516      12.21753517       1.87866583         0.00000000       0.00000000       0.00000000          1
H        13.20214683       8.29718725       1.56988087         0.00000000       0.00000000       0.00000000          1
H        14.40606049      10.50088080       0.34571072         0.00000000       0.00000000       0.00000000          1
6
pbc=[F, F, F] list_num_par=6 frozen=false iter=20000 energy=-1.26974174 Lattice="15.00000000 0.00000000 0.00000000 0.00000000 15.00000000 0.00000000 0.00000000 0.00000000 15.00000000" energy_frozen_part=0.00000000 Properties=species:S:1:pos:R:3:velocities:R:3:Z:I:1
H        11.62553206      10.23321468       0.31713256         0.00000000       0.00000000       0.00000000          1
H        14.39932380      10.28136220       3.13001144         0.00000000       0.00000000       0.00000000          1