6
pbc=[F, F, F] list_num_par=6 energy=-1.26974174 iter=20000 frozen=false Lattice="15.00000000 0.00000000 0.00000000 0.00000000 15.00000000 0.00000000 0.00000000 0.00000000 15.00000000" energy_frozen_part=0.00000000 Properties=species:S:1:pos:R:3:velocities:R:3:Z:I:1
H         5.37612454       3.46237392       0.41882477         0.00000000       0.00000000       0.00000000          1
H         6.58450719       4.97602444       2.43201434         0.00000000       0.00000000       0.00000000          1
H         3.89627761       4.24905180       2.65388644         0.00000000       0.00000000       0.00000000          1
H         5.80241392       3.07899362       4.32776714         0.00000000       0.00000000       0.00000000          1
H         7.28225472       2.29231603       2.09270839         0.00000000       0.00000000       0.00000000          1
H         4.59402284       1.56534043       2.31457602         0.00000000       0.00000000       0.00000000          1
6
pbc=[F, F, F] list_num_par=6 energy=-1.26974174 iter=20000 frozen=false Lattice="15.00000000 0.00000000 0.00000000 0.00000000 15.00000000 0.00000000 0.00000000 0.00000000 15.00000000" energy_frozen_part=0.00000000 Properties=species:S:1:pos:R:3:velocities:R:3:Z:I:1
H         5.37853138       3.46254740       0.41749619         0.00000000       0.00000000       0.00000000          1
H         6.58549991       4.97648960       2.43132025         0.00000000       0.00000000       0.00000000          1
H         3.89756568       4.24813753       2.65219307         0.00000000       0.00000000       0.00000000          1
H         5.80373902       3.07876914       4.32652192         0.00000000       0.00000000       0.00000000          1
H         7.28470125       2.29318817       2.09182485         0.00000000       0.00000000       0.00000000          1
H         4.59676241       1.56482954       2.31269833         0.00000000       0.00000000       0.00000000          1
6
pbc=[F, F, F] list_num_par=6 energy=-1.26974174 iter=20000 frozen=false Lattice="15.00000000 0.00000000 0.00000000 0.00000000 15.00000000 0.00000000 0.00000000 0.00000000 15.00000000" energy_frozen_part=0.00000000 Properties=species:S:1:pos:R:3:velocities:R:3:Z:I:1
H         5.37613399       3.46237713       0.41881993         0.00000000       0.00000000       0.00000000          1
H         6.58449961       4.97603130       2.43202782         0.00000000       0.00000000       0.00000000          1
H         3.89626927       4.24906561       2.65386319         0.00000000       0.00000000       0.00000000          1
H         5.80238826       3.07900616       4.32777467         0.00000000       0.00000000       0.00000000          1
H         7.28225002       2.29232119       2.09273505         0.00000000       0.00000000       0.00000000          1
H         4.59401322       1.56535469       2.31457083         0.00000000       0.00000000       0.00000000          1
6
pbc=[F, F, F] list_num_par=6 energy=-1.26974174 iter=20000 frozen=false Lattice="15.00000000 0.00000000 0.00000000 0.00000000 15.00000000 0.00000000 0.00000000 0.00000000 15.00000000" energy_frozen_part=0.00000000 Properties=species:S:1:pos:R:3:velocities:R:3:Z:I:1
H         5.37616354       3.46236581       0.41882614         0.00000000       0.00000000       0.00000000          1
H         6.58452424       4.97600104       2.43204158         0.00000000       0.00000000       0.00000000          1
H         3.89627990       4.24906099       2.65385072         0.00000000       0.00000000       0.00000000          1
H         5.80237006       3.07898014       4.32777348         0.00000000       0.00000000       0.00000000          1
H         7.28225046       2.29228471       2.09275226         0.00000000       0.00000000       0.00000000          1
H         4.59400455       1.56534319       2.31455619         0.00000000       0.00000000       0.00000000          1
6
pbc=[F, F, F] list_num_par=6 energy=-1.26974174 iter=20000 frozen=false Lattice="15.00000000 0.00000000 0.00000000 0.00000000 15.00000000 0.00000000 0.00000000 0.00000000 15.00000000" energy_frozen_part=0.00000000 Properties=species:S:1:pos:R:3:velocities:R:3:Z:I:1
H         5.37612308       3.46237784       0.41881674         0.00000000       0.00000000       0.00000000          1
H         6.58452087       4.97602104       2.43200960         0.00000000       0.00000000       0.00000000          1
H         3.89628931       4.24906489       2.65388104         0.00000000       0.00000000       0.00000000          1
H         5.80240876       3.07899208       4.32776523         0.00000000       0.00000000       0.00000000          1
H         7.28225155       2.29231170       2.09270877         0.00000000       0.00000000       0.00000000          1
H         4.59401739       1.56535068       2.31457050         0.00000000       0.00000000       0.00000000          1
6
pbc=[F, F, F] list_num_par=6 energy=-1.26974174 iter=20000 frozen=false Lattice="15.00000000 0.00000000 0.00000000 0.00000000 15.00000000 0.00000000 0.00000000 0.00000000 15.00000000" energy_frozen_part=0.00000000 Properties=species:S:1:pos:R:3:velocities:R:3:Z:I:1
H         5.37613650       3.46237177       0.41880322         0.00000000       0.00000000       0.00000000          1
H         6.58452092       4.97598010       2.43202481         0.00000000       0.00000000       0.00000000          1
H         3.89628395       4.24904101       2.65385610         0.00000000       0.00000000       0.00000000          1
H         5.80237470       3.07893551       4.32775209         0.00000000       0.00000000       0.00000000          1
H         7.28223426       2.29226205       2.09269739         0.00000000       0.00000000       0.00000000          1
H         4.59399674       1.56532480       2.31452626         0.00000000       0.00000000       0.00000000          1
6
pbc=[F, F, F] list_num_par=6 energy=-1.26974174 iter=20000 frozen=false Lattice="15.00000000 0.00000000 0.00000000 0.00000000 15.00000000 0.00000000 0.00000000 0.00000000 15.00000000" energy_frozen_part=0.00000000 Properties=species:S:1:pos:R:3:velocities:R:3:Z:I:1
H         5.37612072       3.46238003       0.41882450         0.00000000       0.00000000       0.00000000          1
H         6.58452570       4.97598250       2.43204646         0.00000000       0.00000000       0.00000000          1
H         3.89628589       4.24905045       2.65389574         0.00000000       0.00000000       0.00000000          1
H         5.80239895       3.07892449       4.32776408         0.00000000       0.00000000       0.00000000          1
H         7.28222812       2.29226225       2.09269108         0.00000000       0.00000000       0.00000000          1
H         4.59399008       1.56533382       2.31454366         0.00000000       0.00000000       0.00000000          1
6
pbc=[F, F, F] list_num_par=6 energy=-1.26974174 iter=20000 frozen=false Lattice="15.00000000 0.00000000 0.00000000 0.00000000 15.00000000 0.00000000 0.00000000 0.00000000 15.00000000" energy_frozen_part=0.00000000 Properties=species:S:1:pos:R:3:velocities:R:3:Z:I:1
H         5.37626966       3.46226687       0.41878477         0.00000000       0.00000000       0.00000000          1
H         6.58445051       4.97596886       2.43206422         0.00000000       0.00000000       0.00000000          1
H         3.89619130       4.24903478       2.65364964         0.00000000       0.00000000       0.00000000          1
H         5.80212790       3.07899964       4.32778752         0.00000000       0.00000000       0.00000000          1
H         7.28220918       2.29223969       2.09292022         0.00000000       0.00000000       0.00000000          1
H         4.59394847       1.56530093       2.31450609         0.00000000       0.00000000       0.00000000          1
6
pbc=[F, F, F] list_num_par=6 energy=-1.26974174 iter=20000 frozen=false Lattice="15.00000000 0.00000000 0.00000000 0.00000000 15.00000000 0.00000000 0.00000000 0.00000000 15.00000000" energy_frozen_part=0.00000000 Properties=species:S:1:pos:R:3:velocities:R:3:Z:I:1
H         5.37606017       3.46235789       0.41885964         0.00000000       0.00000000       0.00000000          1
H         6.58443963       4.97600072       2.43205851         0.00000000       0.00000000       0.00000000          1
H         3.89619770       4.24906273       2.65389936         0.00000000       0.00000000       0.00000000          1
H         5.80230031       3.07898921       4.32781121         0.00000000       0.00000000       0.00000000          1
H         7.28216475       2.29228378       2.09276961         0.00000000       0.00000000       0.00000000          1
H         4.59392878       1.56534258       2.31461520         0.00000000       0.00000000       0.00000000          1
6
pbc=[F, F, F] list_num_par=6 energy=-1.26974174 iter=20000 frozen=false Lattice="15.00000000 0.00000000 0.00000000 0.00000000 15.00000000 0.00000000 0.00000000 0.00000000 15.00000000" energy_frozen_part=0.00000000 Properties=species:S:1:pos:R:3:velocities:R:3:Z:I:1
H         5.37613072       3.46233534       0.41882455         0.00000000       0.00000000       0.00000000          1
H         6.58447193       4.97600684       2.43203716         0.00000000       0.00000000       0.00000000          1
H         3.89624085       4.24902710       2.65384485         0.00000000       0.00000000       0.00000000          1
H         5.80233768       3.07899208       4.32778523         0.00000000       0.00000000       0.00000000          1
H         7.28223195       2.29229751       2.09276583         0.00000000       0.00000000       0.00000000          1
H         4.59400001       1.56531347       2.31458202         0.00000000       0.00000000       0.00000000          1
6
pbc=[F, F, F] list_num_par=6 energy=-1.26974174 iter=20000 frozen=false Lattice="15.00000000 0.00000000 0.00000000 0.00000000 15.00000000 0.00000000 0.00000000 0.00000000 15.00000000" energy_frozen_part=0.00000000 Properties=species:S:1:pos:R:3:velocities:R:3:Z:I:1
H         5.37619197       3.46231064       0.41885378         0.00000000       0.00000000       0.00000000          1
H         6.58473303       4.97612576       2.43183137         0.00000000       0.00000000       0.00000000          1
H         3.89647255       4.24932448       2.65387504         0.00000000       0.00000000       0.00000000          1
H         5.80260955       3.07935119       4.32782858         0.00000000       0.00000000       0.00000000          1
H         7.28232978       2.29233755       2.09279957         0.00000000       0.00000000       0.00000000          1
H         4.59406640       1.56554086       2.31485036         0.00000000       0.00000000       0.00000000          1
6
pbc=[F, F, F] list_num_par=6 energy=-1.26974174 iter=20000 frozen=false Lattice="15.00000000 0.00000000 0.00000000 0.00000000 15.00000000 0.00000000 0.00000000 0.00000000 15.00000000" energy_frozen_part=0.00000000 Properties=species:S:1:pos:R:3:velocities:R:3:Z:I:1
H         5.37852662       3.46255205       0.41750305         0.00000000       0.00000000       0.00000000          1
H         6.58550005       4.97649151       2.43132375         0.00000000       0.00000000       0.00000000          1
H         3.89756047       4.24813881       2.65220129         0.00000000       0.00000000       0.00000000          1
H         5.80374021       3.07876372       4.32651935         0.00000000       0.00000000       0.00000000          1
H         7.28470828       2.29318749       2.09181805         0.00000000       0.00000000       0.00000000          1
H         4.59676988       1.56482899       2.31269926         0.00000000       0.00000000       0.00000000          1
6
pbc=[F, F, F] list_num_par=6 energy=-1.26974174 iter=20000 frozen=false Lattice="15.00000000 0.00000000 0.00000000 0.00000000 15.00000000 0.00000000 0.00000000 0.00000000 15.00000000" energy_frozen_part=0.00000000 Properties=species:S:1:pos:R:3:velocities:R:3:Z:I:1
H         5.37847616       3.46261238       0.41754097         0.00000000       0.00000000       0.00000000          1
H         6.58552407       4.97651628       2.43134367         0.00000000       0.00000000       0.00000000          1
H         3.89758216       4.24818683       2.65229294         0.00000000       0.00000000       0.00000000          1
H         5.80380655       3.07878807       4.32654564         0.00000000       0.00000000       0.00000000          1
H         7.28469307       2.29320477       2.09179079         0.00000000       0.00000000       0.00000000          1
H         4.59675642       1.56488034       2.31274470         0.00000000       0.00000000       0.00000000          1
6
pbc=[F, F, F] list_num_par=6 energy=-1.26974174 iter=20000 frozen=false Lattice="15.00000000 0.00000000 0.00000000 0.00000000 15.00000000 0.00000000 0.00000000 0.00000000 15.00000000" energy_frozen_part=0.00000000 Properties=species:S:1:pos:R:3:velocities:R:3:Z:I:1
H         5.37854482       3.46254776       0.41749445         0.00000000       0.00000000       0.00000000          1
H         6.58549606       4.97648975       2.43132849         0.00000000       0.00000000       0.00000000          1
H         3.89755991       4.24812088       2.65218819         0.00000000       0.00000000       0.00000000          1
H         5.80374030       3.07875672       4.32651210         0.00000000       0.00000000       0.00000000          1
H         7.28472385       2.29318959       2.09181918         0.00000000       0.00000000       0.00000000          1
H         4.59678598       1.56481800       2.31268302         0.00000000       0.00000000       0.00000000          1
6
pbc=[F, F, F] list_num_par=6 energy=-1.26974174 iter=20000 frozen=false Lattice="15.00000000 0.00000000 0.00000000 0.00000000 15.00000000 0.00000000 0.00000000 0.00000000 15.00000000" energy_frozen_part=0.00000000 Properties=species:S:1:pos:R:3:velocities:R:3:Z:I:1
H         5.37619536       3.46230430       0.41884529         0.00000000       0.00000000       0.00000000          1
H         6.58477239       4.97611512       2.43180649         0.00000000       0.00000000       0.00000000          1
H         3.89648712       4.24939100       2.65384725         0.00000000       0.00000000       0.00000000          1
H         5.80257370       3.07939108       4.32783082         0.00000000       0.00000000       0.00000000          1
H         7.28228506       2.29229925       2.09282815         0.00000000       0.00000000       0.00000000          1
H         4.59400625       1.56557466       2.31487017         0.00000000       0.00000000       0.00000000          1
6
pbc=[F, F, F] list_num_par=6 energy=-1.26974174 iter=20000 frozen=false Lattice="15.00000000 0.00000000 0.00000000 0.00000000 15.00000000 0.00000000 0.00000000 0.00000000 15.00000000" energy_frozen_part=0.00000000 Properties=species:S:1:pos:R:3:velocities:R:3:Z:I:1
H         5.37617645       3.46235340       0.41881360         0.00000000       0.00000000       0.00000000          1
H         6.58449510       4.97600356       2.43205120         0.00000000       0.00000000       0.00000000          1
H         3.89626495       4.24903651       2.65382769         0.00000000       0.00000000       0.00000000          1
H         5.80234604       3.07896434       4.32777468         0.00000000       0.00000000       0.00000000          1
H         7.28225653       2.29229379       2.09276014         0.00000000       0.00000000       0.00000000          1
H         4.59401676       1.56532385       2.31453679         0.00000000       0.00000000       0.00000000          1
6
pbc=[F, F, F] list_num_par=6 energy=-1.26974174 iter=20000 frozen=false Lattice="15.00000000 0.00000000 0.00000000 0.00000000 15.00000000 0.00000000 0.00000000 0.00000000 15.00000000" energy_frozen_part=0.00000000 Properties=species:S:1:pos:R:3:velocities:R:3:Z:I:1
H         5.37626930       3.46226941       0.41879582         0.00000000       0.00000000       0.00000000          1
H         6.58444934       4.97595630       2.43207985         0.00000000       0.00000000       0.00000000          1
H         3.89618934       4.24901572       2.65367376         0.00000000       0.00000000       0.00000000          1
H         5.80213271       3.07897757       4.32779200         0.00000000       0.00000000       0.00000000          1
H         7.28220937       2.29223638       2.09291355         0.00000000       0.00000000       0.00000000          1
H         4.59394721       1.56528770       2.31450543         0.00000000       0.00000000       0.00000000          1
6
pbc=[F, F, F] list_num_par=6 energy=-1.26974174 iter=20000 frozen=false Lattice="15.00000000 0.00000000 0.00000000 0.00000000 15.00000000 0.00000000 0.00000000 0.00000000 15.00000000" energy_frozen_part=0.00000000 Properties=species:S:1:pos:R:3:velocities:R:3:Z:I:1
H         5.37617386       3.46236180       0.41881298         0.00000000       0.00000000       0.00000000          1
H         6.58450058       4.97600086       2.43205322         0.00000000       0.00000000       0.00000000          1
H         3.89626636       4.24904272       2.65382704         0.00000000       0.00000000       0.00000000          1
H         5.80233741       3.07896934       4.32777871         0.00000000       0.00000000       0.00000000          1
H         7.28224674       2.29228944       2.09275911         0.00000000       0.00000000       0.00000000          1
H         4.59401613       1.56532971       2.31454071         0.00000000       0.00000000       0.00000000          1
6
pbc=[F, F, F] list_num_par=6 energy=-1.26974174 iter=20000 frozen=false Lattice="15.00000000 0.00000000 0.00000000 0.00000000 15.00000000 0.00000000 0.00000000 0.00000000 15.00000000" energy_frozen_part=0.00000000 Properties=species:S:1:pos:R:3:velocities:R:3:Z:I:1
H         5.37625363       3.46227017       0.41879057         0.00000000       0.00000000       0.00000000          1
H         6.58444126       4.97597038       2.43206493         0.00000000       0.00000000       0.00000000          1
H         3.89617762       4.24903154       2.65366406         0.00000000       0.00000000       0.00000000          1
H         5.80212346       3.07900406       4.32779714         0.00000000       0.00000000       0.00000000          1
H         7.28219686       2.29224156       2.09292386         0.00000000       0.00000000       0.00000000          1
H         4.59393816       1.56530479       2.31451470         0.00000000       0.00000000       0.00000000          1
6
pbc=[F, F, F] list_num_par=6 energy=-1.26974174 iter=20000 frozen=false Lattice="15.00000000 0.00000000 0.00000000 0.00000000 15.00000000 0.00000000 0.00000000 0.00000000 15.00000000" energy_frozen_part=0.00000000 Properties=species:S:1:pos:R:3:velocities:R:3:Z:I:1
H         5.37853774       3.46254491       0.41749616         0.00000000       0.00000000       0.00000000          1
H         6.58550291       4.97647896       2.43132687         0.00000000       0.00000000       0.00000000          1
H         3.89756795       4.24812523       2.65219526         0.00000000       0.00000000       0.00000000          1
H         5.80373172       3.07875058       4.32652039         0.00000000       0.00000000       0.00000000          1
H         7.28470010       2.29316230       2.09182266         0.00000000       0.00000000       0.00000000          1
H         4.59676385       1.56481654       2.31269107         0.00000000       0.00000000       0.00000000          1
6
pbc=[F, F, F] list_num_par=6 energy=-1.26974174 iter=20000 frozen=false Lattice="15.00000000 0.00000000 0.00000000 0.00000000 15.00000000 0.00000000 0.00000000 0.00000000 15.00000000" energy_frozen_part=0.00000000 Properties=species:S:1:pos:R:3:velocities:R:3:Z:I:1
H         5.37849725       3.46255907       0.41750313         0.00000000       0.00000000       0.00000000          1
H         6.58549883       4.97649787       2.43130540         0.00000000       0.00000000       0.00000000          1
H         3.89757130       4.24814164       2.65222934         0.00000000       0.00000000       0.00000000          1
H         5.80376570       3.07877360       4.32652029         0.00000000       0.00000000       0.00000000          1
H         7.28470154       2.29319268       2.09179758         0.00000000       0.00000000       0.00000000          1
H         4.59677331       1.56483342       2.31271150         0.00000000       0.00000000       0.00000000          1
6
pbc=[F, F, F] list_num_par=6 energy=-1.26974174 iter=20000 frozen=false Lattice="15.00000000 0.00000000 0.00000000 0.00000000 15.00000000 0.00000000 0.00000000 0.00000000 15.00000000" energy_frozen_part=0.00000000 Properties=species:S:1:pos:R:3:velocities:R:3:Z:I:1
H         5.37848387       3.46255868       0.41751228         0.00000000       0.00000000       0.00000000          1
H         6.58547805       4.97649655       2.43133039         0.00000000       0.00000000       0.00000000          1
H         3.89755260       4.24811652       2.65224022         0.00000000       0.00000000       0.00000000          1
H         5.80375954       3.07875797       4.32653281         0.00000000       0.00000000       0.00000000          1
H         7.28468542       2.29319138       2.09180053         0.00000000       0.00000000       0.00000000          1
H         4.59676160       1.56481727       2.31271638         0.00000000       0.00000000       0.00000000          1
6
pbc=[F, F, F] list_num_par=6 energy=-1.26974174 iter=20000 frozen=false Lattice="15.00000000 0.00000000 0.00000000 0.00000000 15.00000000 0.00000000 0.00000000 0.00000000 15.00000000" energy_frozen_part=0.00000000 Properties=species:S:1:pos:R:3:velocities:R:3:Z:I:1
H         5.37612906       3.46233881       0.41883111         0.00000000       0.00000000       0.00000000          1
H         6.58447112       4.97601082       2.43203387         0.00000000       0.00000000       0.00000000          1
H         3.89623949       4.24903069       2.65385081         0.00000000       0.00000000       0.00000000          1
H         5.80234510       3.07898582       4.32778471         0.00000000       0.00000000       0.00000000          1
H         7.28223627       2.29229880       2.09276400         0.00000000       0.00000000       0.00000000          1
H         4.59399674       1.56532065       2.31458223         0.00000000       0.00000000       0.00000000          1
6
pbc=[F, F, F] list_num_par=6 energy=-1.26974174 iter=20000 frozen=false Lattice="15.00000000 0.00000000 0.00000000 0.00000000 15.00000000 0.00000000 0.00000000 0.00000000 15.00000000" energy_frozen_part=0.00000000 Properties=species:S:1:pos:R:3:velocities:R:3:Z:I:1
H         5.37626677       3.46227701       0.41879047         0.00000000       0.00000000       0.00000000          1
H         6.58444188       4.97597202       2.43207464         0.00000000       0.00000000       0.00000000          1
H         3.89618764       4.24903416       2.65366975         0.00000000       0.00000000       0.00000000          1
H         5.80212353       3.07899416       4.32779896         0.00000000       0.00000000       0.00000000          1
H         7.28219830       2.29224346       2.09292310         0.00000000       0.00000000       0.00000000          1
H         4.59394073       1.56530510       2.31451280         0.00000000       0.00000000       0.00000000          1
6
pbc=[F, F, F] list_num_par=6 energy=-1.26974174 iter=20000 frozen=false Lattice="15.00000000 0.00000000 0.00000000 0.00000000 15.00000000 0.00000000 0.00000000 0.00000000 15.00000000" energy_frozen_part=0.00000000 Properties=species:S:1:pos:R:3:velocities:R:3:Z:I:1
H         5.37618439       3.46225015       0.41883885         0.00000000       0.00000000       0.00000000          1
H         6.58473042       4.97610376       2.43178088         0.00000000       0.00000000       0.00000000          1
H         3.89647294       4.24929067       2.65385559         0.00000000       0.00000000       0.00000000          1
H         5.80261705       3.07935147       4.32781146         0.00000000       0.00000000       0.00000000          1
H         7.28233384       2.29231512       2.09279311         0.00000000       0.00000000       0.00000000          1
H         4.59408012       1.56550118       2.31487029         0.00000000       0.00000000       0.00000000          1
6
pbc=[F, F, F] list_num_par=6 energy=-1.26974174 iter=20000 frozen=false Lattice="15.00000000 0.00000000 0.00000000 0.00000000 15.00000000 0.00000000 0.00000000 0.00000000 15.00000000" energy_frozen_part=0.00000000 Properties=species:S:1:pos:R:3:velocities:R:3:Z:I:1
H         5.37848201       3.46254624       0.41750633         0.00000000       0.00000000       0.00000000          1
H         6.58548729       4.97649968       2.43130006         0.00000000       0.00000000       0.00000000          1
H         3.89755803       4.24812260       2.65223615         0.00000000       0.00000000       0.00000000          1
H         5.80377882       3.07877804       4.32652516         0.00000000       0.00000000       0.00000000          1
H         7.28469475       2.29318977       2.09179525         0.00000000       0.00000000       0.00000000          1
H         4.59677459       1.56482347       2.31272768         0.00000000       0.00000000       0.00000000          1
6
pbc=[F, F, F] list_num_par=6 energy=-1.26974174 iter=20000 frozen=false Lattice="15.00000000 0.00000000 0.00000000 0.00000000 15.00000000 0.00000000 0.00000000 0.00000000 15.00000000" energy_frozen_part=0.00000000 Properties=species:S:1:pos:R:3:velocities:R:3:Z:I:1
H         5.37615272       3.46233791       0.41882228         0.00000000       0.00000000       0.00000000          1
H         6.58449765       4.97600681       2.43202599         0.00000000       0.00000000       0.00000000          1
H         3.89625944       4.24904874       2.65383804         0.00000000       0.00000000       0.00000000          1
H         5.80234998       3.07899319       4.32777963         0.00000000       0.00000000       0.00000000          1
H         7.28224626       2.29229416       2.09276165         0.00000000       0.00000000       0.00000000          1
H         4.59400281       1.56533218       2.31457377         0.00000000       0.00000000       0.00000000          1
6
pbc=[F, F, F] list_num_par=6 energy=-1.26974174 iter=20000 frozen=false Lattice="15.00000000 0.00000000 0.00000000 0.00000000 15.00000000 0.00000000 0.00000000 0.00000000 15.00000000" energy_frozen_part=0.00000000 Properties=species:S:1:pos:R:3:velocities:R:3:Z:I:1
H         5.37615408       3.46235899       0.41882582         0.00000000       0.00000000       0.00000000          1
H         6.58450094       4.97600410       2.43204157         0.00000000       0.00000000       0.00000000          1
H         3.89626921       4.24904292       2.65385052         0.00000000       0.00000000       0.00000000          1
H         5.80235479       3.07897609       4.32778062         0.00000000       0.00000000       0.00000000          1
H         7.28224071       2.29228370       2.09275492         0.00000000       0.00000000       0.00000000          1
H         4.59400407       1.56533083       2.31455849         0.00000000       0.00000000       0.00000000          1
6
pbc=[F, F, F] list_num_par=6 energy=-1.26974174 iter=20000 frozen=false Lattice="15.00000000 0.00000000 0.00000000 0.00000000 15.00000000 0.00000000 0.00000000 0.00000000 15.00000000" energy_frozen_part=0.00000000 Properties=species:S:1:pos:R:3:velocities:R:3:Z:I:1
H         5.37613409       3.46237813       0.41882568         0.00000000       0.00000000       0.00000000          1
H         6.58449961       4.97603130       2.43202782         0.00000000       0.00000000       0.00000000          1
H         3.89626738       4.24906312       2.65386577         0.00000000       0.00000000       0.00000000          1
H         5.80238826       3.07900616       4.32777467         0.00000000       0.00000000       0.00000000          1
H         7.28225385       2.29231881       2.09273327         0.00000000       0.00000000       0.00000000          1
H         4.59402677       1.56534664       2.31457909         0.00000000       0.00000000       0.00000000          1
6
pbc=[F, F, F] list_num_par=6 energy=-1.26974174 iter=20000 frozen=false Lattice="15.00000000 0.00000000 0.00000000 0.00000000 15.00000000 0.00000000 0.00000000 0.00000000 15.00000000" energy_frozen_part=0.00000000 Properties=species:S:1:pos:R:3:velocities:R:3:Z:I:1
H         5.37902804       3.45688111       0.41637696         0.00000000       0.00000000       0.00000000          1
H         6.58497796       4.97454377       2.42801195         0.00000000       0.00000000       0.00000000          1
H         3.89743157       4.24503282       2.64975822         0.00000000       0.00000000       0.00000000          1
H         5.80409796       3.07925892       4.32601865         0.00000000       0.00000000       0.00000000          1
H         7.28570451       2.29111401       2.09264135         0.00000000       0.00000000       0.00000000          1
H         4.59815396       1.56160017       2.31438465         0.00000000       0.00000000       0.00000000          1
6
pbc=[F, F, F] list_num_par=6 energy=-1.26974174 iter=20000 frozen=false Lattice="15.00000000 0.00000000 0.00000000 0.00000000 15.00000000 0.00000000 0.00000000 0.00000000 15.00000000" energy_frozen_part=0.00000000 Properties=species:S:1:pos:R:3:velocities:R:3:Z:I:1
H         5.37847304       3.46254669       0.41750282         0.00000000       0.00000000       0.00000000          1
H         6.58547724       4.97649062       2.43130687         0.00000000       0.00000000       0.00000000          1