6
pbc=[F, F, F] list_num_par=6 frozen=false iter=9 energy=111.78034599 Lattice="15.00000000 0.00000000 0.00000000 0.00000000 15.00000000 0.00000000 0.00000000 0.00000000 15.00000000" energy_frozen_part=0.00000000 Properties=species:S:1:pos:R:3:velocities:R:3:Z:I:1
H         4.29005642      13.35287486       6.87864864         0.00000000       0.00000000       0.00000000          1
H         7.34869375       3.86840665      13.63757965         0.00000000       0.00000000       0.00000000          1
H         3.27491334      12.17407693       6.87699348         0.00000000       0.00000000       0.00000000          1
H        12.40329180       5.70382226       0.64886356         0.00000000       0.00000000       0.00000000          1
H         3.09440011       8.58538625      11.85405848         0.00000000       0.00000000       0.00000000          1
H         0.52272384      11.39462909       0.62219743         0.00000000       0.00000000       0.00000000          1
6
pbc=[F, F, F] list_num_par=6 frozen=false iter=19 energy=1.52595965 Lattice="15.00000000 0.00000000 0.00000000 0.00000000 15.00000000 0.00000000 0.00000000 0.00000000 15.00000000" energy_frozen_part=0.00000000 Properties=species:S:1:pos:R:3:velocities:R:3:Z:I:1
H         2.87180256       2.56485436      12.36767996         0.00000000       0.00000000       0.00000000          1
H         2.12431906      13.53953481       7.53319847         0.00000000       0.00000000       0.00000000          1
H         6.99280134      12.06716833       1.54513505         0.00000000       0.00000000       0.00000000          1
H         2.61808104      12.70371474       3.58899881         0.00000000       0.00000000       0.00000000          1
H         0.05240058      13.37339475       8.04526480         0.00000000       0.00000000       0.00000000          1
H         6.15006616       4.86578859       6.32514262         0.00000000       0.00000000       0.00000000          1
6
pbc=[F, F, F] list_num_par=6 frozen=false iter=29 energy=0.09188339 Lattice="15.00000000 0.00000000 0.00000000 0.00000000 15.00000000 0.00000000 0.00000000 0.00000000 15.00000000" energy_frozen_part=0.00000000 Properties=species:S:1:pos:R:3:velocities:R:3:Z:I:1
H         6.75733316       1.98476396       3.24057662         0.00000000       0.00000000       0.00000000          1
H         5.42423136      14.84191482      12.20543480         0.00000000       0.00000000       0.00000000          1
H        10.42155225      12.60697790       7.60771637         0.00000000       0.00000000       0.00000000          1
H         0.87044795       1.22497282      11.93934376         0.00000000       0.00000000       0.00000000          1
H        14.32866893       5.54393005       4.04419074         0.00000000       0.00000000       0.00000000          1
H         7.52170331       4.28236126       3.08013389         0.00000000       0.00000000       0.00000000          1
6
pbc=[F, F, F] list_num_par=6 frozen=false iter=39 energy=-0.00337126 Lattice="15.00000000 0.00000000 0.00000000 0.00000000 15.00000000 0.00000000 0.00000000 0.00000000 15.00000000" energy_frozen_part=0.00000000 Properties=species:S:1:pos:R:3:velocities:R:3:Z:I:1
H         6.20476288       7.93751545      11.96266797         0.00000000       0.00000000       0.00000000          1
H        11.31765187       9.99073047       9.05360155         0.00000000       0.00000000       0.00000000          1
H         4.36701234       1.92559980       0.08516651         0.00000000       0.00000000       0.00000000          1
H         0.80510600      13.16027218       6.10216055         0.00000000       0.00000000       0.00000000          1
H         3.49785455      14.98443970      12.53848060         0.00000000       0.00000000       0.00000000          1
H        10.53936234       4.29622920       3.67546616         0.00000000       0.00000000       0.00000000          1
6
pbc=[F, F, F] list_num_par=6 frozen=false iter=49 energy=-0.00692197 Lattice="15.00000000 0.00000000 0.00000000 0.00000000 15.00000000 0.00000000 0.00000000 0.00000000 15.00000000" energy_frozen_part=0.00000000 Properties=species:S:1:pos:R:3:velocities:R:3:Z:I:1
H        11.83335087       0.61478726      13.60247710         0.00000000       0.00000000       0.00000000          1
H         0.19327891       1.07400774       0.05503018         0.00000000       0.00000000       0.00000000          1
H         6.52030713      12.41967274       6.00287601         0.00000000       0.00000000       0.00000000          1
H         9.96461078       8.42219665       5.65234129         0.00000000       0.00000000       0.00000000          1
H         0.86771614       2.92833347      12.27721963         0.00000000       0.00000000       0.00000000          1
H         3.70610630       9.13461518       1.85384801         0.00000000       0.00000000       0.00000000          1
6
pbc=[F, F, F] list_num_par=6 frozen=false iter=59 energy=-0.01012105 Lattice="15.00000000 0.00000000 0.00000000 0.00000000 15.00000000 0.00000000 0.00000000 0.00000000 15.00000000" energy_frozen_part=0.00000000 Properties=species:S:1:pos:R:3:velocities:R:3:Z:I:1
H         9.08549425       0.15120167       5.15001907         0.00000000       0.00000000       0.00000000          1
H         9.60238551      12.93537557      14.14297072         0.00000000       0.00000000       0.00000000          1
H         7.79345178       0.69623326      12.03475458         0.00000000       0.00000000       0.00000000          1
H         8.48124888      14.40394836       7.34866831         0.00000000       0.00000000       0.00000000          1
H         6.77036836      13.48458611       8.85651800         0.00000000       0.00000000       0.00000000          1
H        11.52502051       2.52377855       5.21334560         0.00000000       0.00000000       0.00000000          1
6
pbc=[F, F, F] list_num_par=6 frozen=false iter=69 energy=-0.01271591 Lattice="15.00000000 0.00000000 0.00000000 0.00000000 15.00000000 0.00000000 0.00000000 0.00000000 15.00000000" energy_frozen_part=0.00000000 Properties=species:S:1:pos:R:3:velocities:R:3:Z:I:1
H        10.47631406       4.08873191       7.86998697         0.00000000       0.00000000       0.00000000          1
H         1.25096809       6.20939878       3.41997236         0.00000000       0.00000000       0.00000000          1
H        10.00391074       6.48835648       2.38339048         0.00000000       0.00000000       0.00000000          1
H         2.02006281       0.42049617      12.43992260         0.00000000       0.00000000       0.00000000          1
H         0.29475621       4.45193458      11.14504372         0.00000000       0.00000000       0.00000000          1
H        14.46702902      14.47511417       4.17634229         0.00000000       0.00000000       0.00000000          1
6
pbc=[F, F, F] list_num_par=6 frozen=false iter=79 energy=-0.01682292 Lattice="15.00000000 0.00000000 0.00000000 0.00000000 15.00000000 0.00000000 0.00000000 0.00000000 15.00000000" energy_frozen_part=0.00000000 Properties=species:S:1:pos:R:3:velocities:R:3:Z:I:1
H         9.49476030       6.80488402       4.98580221         0.00000000       0.00000000       0.00000000          1
H         2.06920231       5.54749891       1.53552183         0.00000000       0.00000000       0.00000000          1
H        10.00329421       8.10567702       9.58838500         0.00000000       0.00000000       0.00000000          1
H         6.36216941       1.94692655       7.53692322         0.00000000       0.00000000       0.00000000          1
H         0.23841765       4.56244730      12.94163472         0.00000000       0.00000000       0.00000000          1
H         3.73173081       1.36795366      14.47520128         0.00000000       0.00000000       0.00000000          1
6
pbc=[F, F, F] list_num_par=6 frozen=false iter=89 energy=-0.02060800 Lattice="15.00000000 0.00000000 0.00000000 0.00000000 15.00000000 0.00000000 0.00000000 0.00000000 15.00000000" energy_frozen_part=0.00000000 Properties=species:S:1:pos:R:3:velocities:R:3:Z:I:1
H         3.95675375       0.86326600       8.53140583         0.00000000       0.00000000       0.00000000          1
H         7.11965899       9.53879655      14.32572539         0.00000000       0.00000000       0.00000000          1
H        13.37969785       4.32395887       8.91139646         0.00000000       0.00000000       0.00000000          1
H        12.36611526       6.19093289      12.79993719         0.00000000       0.00000000       0.00000000          1
H         4.24521287       1.82528273      13.41464422         0.00000000       0.00000000       0.00000000          1
H         3.03564097       0.46151730       1.14703207         0.00000000       0.00000000       0.00000000          1
6
pbc=[F, F, F] list_num_par=6 frozen=false iter=99 energy=-0.02637366 Lattice="15.00000000 0.00000000 0.00000000 0.00000000 15.00000000 0.00000000 0.00000000 0.00000000 15.00000000" energy_frozen_part=0.00000000 Properties=species:S:1:pos:R:3:velocities:R:3:Z:I:1
H         6.96882925      12.42098280       1.59304714         0.00000000       0.00000000       0.00000000          1
H        13.14157259       8.78986135       4.25183716         0.00000000       0.00000000       0.00000000          1
H         8.42110870      14.52393522       7.06414050         0.00000000       0.00000000       0.00000000          1
H        14.24117661       6.97584100      14.47748244         0.00000000       0.00000000       0.00000000          1
H         0.25335312       6.65367916       5.47825331         0.00000000       0.00000000       0.00000000          1
H        14.43967492       7.70807367      10.55851080         0.00000000       0.00000000       0.00000000          1
6
pbc=[F, F, F] list_num_par=6 frozen=false iter=109 energy=-0.03063577 Lattice="15.00000000 0.00000000 0.00000000 0.00000000 15.00000000 0.00000000 0.00000000 0.00000000 15.00000000" energy_frozen_part=0.00000000 Properties=species:S:1:pos:R:3:velocities:R:3:Z:I:1
H        14.37499270       3.67376664       9.70582242         0.00000000       0.00000000       0.00000000          1
H         7.19939789       1.66675591      13.19246045         0.00000000       0.00000000       0.00000000          1
H         1.05058008       8.83331060       2.53301762         0.00000000       0.00000000       0.00000000          1
H        12.46338202       3.48882047       0.19025643         0.00000000       0.00000000       0.00000000          1
H         4.73679670       4.50706628       4.42236410         0.00000000       0.00000000       0.00000000          1
H         1.90130574       2.49983616       2.72133022         0.00000000       0.00000000       0.00000000          1
6
pbc=[F, F, F] list_num_par=6 frozen=false iter=119 energy=-0.03681827 Lattice="15.00000000 0.00000000 0.00000000 0.00000000 15.00000000 0.00000000 0.00000000 0.00000000 15.00000000" energy_frozen_part=0.00000000 Properties=species:S:1:pos:R:3:velocities:R:3:Z:I:1
H         0.53991849       4.74176474       6.48007321         0.00000000       0.00000000       0.00000000          1
H        11.01310791       5.64916021      12.86843087         0.00000000       0.00000000       0.00000000          1
H         1.93170817      12.10566234      11.15320689         0.00000000       0.00000000       0.00000000          1
H         1.71249390       7.93567935       4.99074673         0.00000000       0.00000000       0.00000000          1
H         9.44340755      11.35416629      12.23724206         0.00000000       0.00000000       0.00000000          1
H        12.50407900       1.88236864       4.94463795         0.00000000       0.00000000       0.00000000          1
6
pbc=[F, F, F] list_num_par=6 frozen=false iter=129 energy=-0.04216978 Lattice="15.00000000 0.00000000 0.00000000 0.00000000 15.00000000 0.00000000 0.00000000 0.00000000 15.00000000" energy_frozen_part=0.00000000 Properties=species:S:1:pos:R:3:velocities:R:3:Z:I:1
H         5.38561529       7.36766161      10.23706238         0.00000000       0.00000000       0.00000000          1
H         5.40385790      12.18689161       5.08000202         0.00000000       0.00000000       0.00000000          1
H        10.60928226      14.35101559       1.50949901         0.00000000       0.00000000       0.00000000          1
H         2.46056811       3.15587583       2.30798631         0.00000000       0.00000000       0.00000000          1
H         2.20075116       2.43699425      13.18796846         0.00000000       0.00000000       0.00000000          1
H        11.90988219      12.51121666       4.35212120         0.00000000       0.00000000       0.00000000          1
6
pbc=[F, F, F] list_num_par=6 frozen=false iter=139 energy=-0.04631789 Lattice="15.00000000 0.00000000 0.00000000 0.00000000 15.00000000 0.00000000 0.00000000 0.00000000 15.00000000" energy_frozen_part=0.00000000 Properties=species:S:1:pos:R:3:velocities:R:3:Z:I:1
H         3.86948221       7.38512562       6.85040727         0.00000000       0.00000000       0.00000000          1
H         4.53652018      12.83073442       3.86305296         0.00000000       0.00000000       0.00000000          1
H        11.45565836      10.18185275       1.65394013         0.00000000       0.00000000       0.00000000          1
H         1.04331146      13.63025299       2.73143220         0.00000000       0.00000000       0.00000000          1
H        11.49872305       6.29106023      14.53597285         0.00000000       0.00000000       0.00000000          1
H         0.46904150       7.39146491       3.79031077         0.00000000       0.00000000       0.00000000          1
6
pbc=[F, F, F] list_num_par=6 frozen=false iter=149 energy=-0.05313204 Lattice="15.00000000 0.00000000 0.00000000 0.00000000 15.00000000 0.00000000 0.00000000 0.00000000 15.00000000" energy_frozen_part=0.00000000 Properties=species:S:1:pos:R:3:velocities:R:3:Z:I:1
H         8.38618568       3.54342063       7.10958022         0.00000000       0.00000000       0.00000000          1
H        13.91464172       5.18410066       1.21512566         0.00000000       0.00000000       0.00000000          1
H         7.44800194       4.12096383       2.42912012         0.00000000       0.00000000       0.00000000          1
H         5.42703929       8.61259219       1.78218047         0.00000000       0.00000000       0.00000000          1
H         6.09830773       0.86153097      13.71770378         0.00000000       0.00000000       0.00000000          1
H         9.09755005       0.77161029      11.48961901         0.00000000       0.00000000       0.00000000          1
6
pbc=[F, F, F] list_num_par=6 frozen=false iter=159 energy=-0.05951414 Lattice="15.00000000 0.00000000 0.00000000 0.00000000 15.00000000 0.00000000 0.00000000 0.00000000 15.00000000" energy_frozen_part=0.00000000 Properties=species:S:1:pos:R:3:velocities:R:3:Z:I:1
H         2.54259249       4.31596597       2.11759448         0.00000000       0.00000000       0.00000000          1
H         0.74055483       0.35862974      14.12504110         0.00000000       0.00000000       0.00000000          1
H         3.01740476       1.41102993       9.25602787         0.00000000       0.00000000       0.00000000          1
H         9.67628863      10.03737912      12.95116304         0.00000000       0.00000000       0.00000000          1
H        13.92423371       9.95985709      12.04223096         0.00000000       0.00000000       0.00000000          1
H         4.74721505       5.63316057       4.61965248         0.00000000       0.00000000       0.00000000          1
6
pbc=[F, F, F] list_num_par=6 frozen=false iter=169 energy=-0.06472807 Lattice="15.00000000 0.00000000 0.00000000 0.00000000 15.00000000 0.00000000 0.00000000 0.00000000 15.00000000" energy_frozen_part=0.00000000 Properties=species:S:1:pos:R:3:velocities:R:3:Z:I:1
H         2.21956876       3.58626229       5.50255396         0.00000000       0.00000000       0.00000000          1
H        12.94730813      14.41191147      13.35242803         0.00000000       0.00000000       0.00000000          1
H         8.41243224      13.20513189       6.70999318         0.00000000       0.00000000       0.00000000          1
H         1.25753021       1.61568471       0.70349434         0.00000000       0.00000000       0.00000000          1
H         5.24168548       1.92888190      13.21416098         0.00000000       0.00000000       0.00000000          1
H        10.22849917      13.36185782      11.66343034         0.00000000       0.00000000       0.00000000          1
6
pbc=[F, F, F] list_num_par=6 frozen=false iter=179 energy=-0.07197774 Lattice="15.00000000 0.00000000 0.00000000 0.00000000 15.00000000 0.00000000 0.00000000 0.00000000 15.00000000" energy_frozen_part=0.00000000 Properties=species:S:1:pos:R:3:velocities:R:3:Z:I:1
H        11.36950751      11.92021853       9.27985661         0.00000000       0.00000000       0.00000000          1
H        11.74408231       9.15628183       3.52599223         0.00000000       0.00000000       0.00000000          1
H         4.10684407       9.89528931       0.28006718         0.00000000       0.00000000       0.00000000          1
H         7.36680071       0.08906318       8.32912956         0.00000000       0.00000000       0.00000000          1
H        11.27430245       5.95751812       3.45503464         0.00000000       0.00000000       0.00000000          1
H        10.66224988       1.18641947       0.36151229         0.00000000       0.00000000       0.00000000          1
6
pbc=[F, F, F] list_num_par=6 frozen=false iter=189 energy=-0.07424987 Lattice="15.00000000 0.00000000 0.00000000 0.00000000 15.00000000 0.00000000 0.00000000 0.00000000 15.00000000" energy_frozen_part=0.00000000 Properties=species:S:1:pos:R:3:velocities:R:3:Z:I:1
H         0.10847506       3.23634516       2.14210538         0.00000000       0.00000000       0.00000000          1
H         4.63100226       5.54897278      13.26704131         0.00000000       0.00000000       0.00000000          1
H         3.57936045       8.60136543      10.43440297         0.00000000       0.00000000       0.00000000          1
H         9.21790741      14.76998773       5.21192710         0.00000000       0.00000000       0.00000000          1
H        10.93594646       0.38071949       1.52450035         0.00000000       0.00000000       0.00000000          1
H         3.13300117      10.00375280       8.31195648         0.00000000       0.00000000       0.00000000          1
6
pbc=[F, F, F] list_num_par=6 frozen=false iter=199 energy=-0.07914354 Lattice="15.00000000 0.00000000 0.00000000 0.00000000 15.00000000 0.00000000 0.00000000 0.00000000 15.00000000" energy_frozen_part=0.00000000 Properties=species:S:1:pos:R:3:velocities:R:3:Z:I:1
H         3.45924371       1.46480333      13.18392652         0.00000000       0.00000000       0.00000000          1
H        14.73190782       4.83848497      12.82300392         0.00000000       0.00000000       0.00000000          1
H         9.33485062      14.88772240       0.23563712         0.00000000       0.00000000       0.00000000          1
H         6.21314352      14.29023437      11.42779716         0.00000000       0.00000000       0.00000000          1
H         5.38728510      14.38546494       8.42884216         0.00000000       0.00000000       0.00000000          1
H         8.36130167       8.03022936       4.84712639         0.00000000       0.00000000       0.00000000          1
6
pbc=[F, F, F] list_num_par=6 frozen=false iter=209 energy=-0.08533344 Lattice="15.00000000 0.00000000 0.00000000 0.00000000 15.00000000 0.00000000 0.00000000 0.00000000 15.00000000" energy_frozen_part=0.00000000 Properties=species:S:1:pos:R:3:velocities:R:3:Z:I:1
H         2.47525260       0.02398630      13.29449440         0.00000000       0.00000000       0.00000000          1
H        11.77605804       9.53504464       4.99576245         0.00000000       0.00000000       0.00000000          1
H         7.25324619      10.24290259       3.75755248         0.00000000       0.00000000       0.00000000          1
H         1.75164105       2.99246297       4.81549901         0.00000000       0.00000000       0.00000000          1
H         4.29886391       5.13458848       5.83535394         0.00000000       0.00000000       0.00000000          1
H         5.75048680       1.91338586      12.53397204         0.00000000       0.00000000       0.00000000          1
6
pbc=[F, F, F] list_num_par=6 frozen=false iter=219 energy=-0.08864323 Lattice="15.00000000 0.00000000 0.00000000 0.00000000 15.00000000 0.00000000 0.00000000 0.00000000 15.00000000" energy_frozen_part=0.00000000 Properties=species:S:1:pos:R:3:velocities:R:3:Z:I:1
H        11.20531696       8.96126666      14.83326235         0.00000000       0.00000000       0.00000000          1
H         4.43468560       6.34362570      14.49937485         0.00000000       0.00000000       0.00000000          1
H         2.95374919       1.86219096       8.02216120         0.00000000       0.00000000       0.00000000          1
H         0.18244281       8.58489126       3.90064163         0.00000000       0.00000000       0.00000000          1
H        14.79133193       3.73749668       3.14955251         0.00000000       0.00000000       0.00000000          1
H         9.92959706       6.87964069      13.01435359         0.00000000       0.00000000       0.00000000          1
6
pbc=[F, F, F] list_num_par=6 frozen=false iter=229 energy=-0.09319598 Lattice="15.00000000 0.00000000 0.00000000 0.00000000 15.00000000 0.00000000 0.00000000 0.00000000 15.00000000" energy_frozen_part=0.00000000 Properties=species:S:1:pos:R:3:velocities:R:3:Z:I:1
H        10.45989543       9.19754376      14.95981806         0.00000000       0.00000000       0.00000000          1
H         4.76603952       7.92347408       5.22068457         0.00000000       0.00000000       0.00000000          1
H         1.98332464       1.99569458      12.26710706         0.00000000       0.00000000       0.00000000          1
H         6.18306956       9.39482790       7.45569218         0.00000000       0.00000000       0.00000000          1
H        11.65060827      14.49179678      10.48424748         0.00000000       0.00000000       0.00000000          1
H         5.70171697      11.32209053      13.95064826         0.00000000       0.00000000       0.00000000          1
6
pbc=[F, F, F] list_num_par=6 frozen=false iter=239 energy=-0.09587584 Lattice="15.00000000 0.00000000 0.00000000 0.00000000 15.00000000 0.00000000 0.00000000 0.00000000 15.00000000" energy_frozen_part=0.00000000 Properties=species:S:1:pos:R:3:velocities:R:3:Z:I:1
H         2.63811749       6.88363780       5.04775040         0.00000000       0.00000000       0.00000000          1
H         9.86641945       3.35047494       3.92496785         0.00000000       0.00000000       0.00000000          1
H         7.31048674       0.95754992       0.04300075         0.00000000       0.00000000       0.00000000          1
H         2.81757021       6.44804445       2.44299888         0.00000000       0.00000000       0.00000000          1
H        12.15893240       0.82921623      11.68867937         0.00000000       0.00000000       0.00000000          1
H         6.95532383       0.72837149       7.10851990         0.00000000       0.00000000       0.00000000          1
6
pbc=[F, F, F] list_num_par=6 frozen=false iter=249 energy=-0.09804167 Lattice="15.00000000 0.00000000 0.00000000 0.00000000 15.00000000 0.00000000 0.00000000 0.00000000 15.00000000" energy_frozen_part=0.00000000 Properties=species:S:1:pos:R:3:velocities:R:3:Z:I:1
H        13.78392433       9.61651993       6.57849128         0.00000000       0.00000000       0.00000000          1
H         3.18989966       5.57280549       6.18529711         0.00000000       0.00000000       0.00000000          1
H         7.93392457       3.68352553      12.98836454         0.00000000       0.00000000       0.00000000          1
H         7.91700208       5.35595879       6.95239729         0.00000000       0.00000000       0.00000000          1
H        11.12735603      13.77433503       3.06081023         0.00000000       0.00000000       0.00000000          1
H         6.65806797       6.09359061       9.90594757         0.00000000       0.00000000       0.00000000          1
6
pbc=[F, F, F] list_num_par=6 frozen=false iter=259 energy=-0.10052815 Lattice="15.00000000 0.00000000 0.00000000 0.00000000 15.00000000 0.00000000 0.00000000 0.00000000 15.00000000" energy_frozen_part=0.00000000 Properties=species:S:1:pos:R:3:velocities:R:3:Z:I:1
H         6.44241576       9.22354000       3.75259366         0.00000000       0.00000000       0.00000000          1
H        13.46047555       9.79559995       2.29877139         0.00000000       0.00000000       0.00000000          1
H         6.67538676       6.82863593       5.68680002         0.00000000       0.00000000       0.00000000          1
H         3.32219819       4.31170692       3.68208934         0.00000000       0.00000000       0.00000000          1
H         1.34994961       0.31290386       5.71061512         0.00000000       0.00000000       0.00000000          1
H         1.42761543       5.58155667      14.07693037         0.00000000       0.00000000       0.00000000          1
6
pbc=[F, F, F] list_num_par=6 frozen=false iter=269 energy=-0.10229871 Lattice="15.00000000 0.00000000 0.00000000 0.00000000 15.00000000 0.00000000 0.00000000 0.00000000 15.00000000" energy_frozen_part=0.00000000 Properties=species:S:1:pos:R:3:velocities:R:3:Z:I:1
H        14.75246985       8.30315160      12.90610961         0.00000000       0.00000000       0.00000000          1
H         4.07925350      11.23337524       5.70817575         0.00000000       0.00000000       0.00000000          1
H         8.89622110       6.08375758      10.90220505         0.00000000       0.00000000       0.00000000          1
H        13.27765928      12.35016316       2.67939562         0.00000000       0.00000000       0.00000000          1
H         7.85243277       7.04804260       8.52548133         0.00000000       0.00000000       0.00000000          1
H         8.37391712       2.96779536       1.00043642         0.00000000       0.00000000       0.00000000          1
6
pbc=[F, F, F] list_num_par=6 frozen=false iter=279 energy=-0.10765442 Lattice="15.00000000 0.00000000 0.00000000 0.00000000 15.00000000 0.00000000 0.00000000 0.00000000 15.00000000" energy_frozen_part=0.00000000 Properties=species:S:1:pos:R:3:velocities:R:3:Z:I:1
H         1.00828188       8.37136919      12.00222679         0.00000000       0.00000000       0.00000000          1
H         1.12519388       4.62880429       2.89989500         0.00000000       0.00000000       0.00000000          1
H         8.73598911      13.30657804       8.39203353         0.00000000       0.00000000       0.00000000          1
H         3.94707191       5.90029580      12.48876228         0.00000000       0.00000000       0.00000000          1
H         6.18468480      13.11040578      10.13781015         0.00000000       0.00000000       0.00000000          1
H        12.27345555       0.86932796      14.12896312         0.00000000       0.00000000       0.00000000          1
6
pbc=[F, F, F] list_num_par=6 frozen=false iter=289 energy=-0.11201265 Lattice="15.00000000 0.00000000 0.00000000 0.00000000 15.00000000 0.00000000 0.00000000 0.00000000 15.00000000" energy_frozen_part=0.00000000 Properties=species:S:1:pos:R:3:velocities:R:3:Z:I:1
H         2.01181894       8.20100458       0.23831954         0.00000000       0.00000000       0.00000000          1
H         5.12385173      11.62826646       4.86031598         0.00000000       0.00000000       0.00000000          1
H         7.54232273       3.14285971       0.99812055         0.00000000       0.00000000       0.00000000          1
H         6.39914393      10.47262145       6.95181837         0.00000000       0.00000000       0.00000000          1
H         5.92219811       6.04527320       5.39569974         0.00000000       0.00000000       0.00000000          1
H         9.69020097       1.27186656      10.73097526         0.00000000       0.00000000       0.00000000          1
6
pbc=[F, F, F] list_num_par=6 frozen=false iter=299 energy=-0.11436300 Lattice="15.00000000 0.00000000 0.00000000 0.00000000 15.00000000 0.00000000 0.00000000 0.00000000 15.00000000" energy_frozen_part=0.00000000 Properties=species:S:1:pos:R:3:velocities:R:3:Z:I:1
H         1.75933801       5.00078609      12.80511292         0.00000000       0.00000000       0.00000000          1
H         0.81930607       7.50391676       9.52318377         0.00000000       0.00000000       0.00000000          1
H         7.87743039       2.44885357       3.15221999         0.00000000       0.00000000       0.00000000          1
H         2.19278436       8.70998632       7.50334326         0.00000000       0.00000000       0.00000000          1
H        14.97573392       4.68442369       6.34239000         0.00000000       0.00000000       0.00000000          1
H         9.00604678       7.06562936      13.35317670         0.00000000       0.00000000       0.00000000          1
6
pbc=[F, F, F] list_num_par=6 frozen=false iter=309 energy=-0.11652503 Lattice="15.00000000 0.00000000 0.00000000 0.00000000 15.00000000 0.00000000 0.00000000 0.00000000 15.00000000" energy_frozen_part=0.00000000 Properties=species:S:1:pos:R:3:velocities:R:3:Z:I:1
H         2.38293186       7.74944538      12.62808538         0.00000000       0.00000000       0.00000000          1
H         7.03752109       3.51870536       0.88258696         0.00000000       0.00000000       0.00000000          1