6
pbc=[F, F, F] list_num_par=6 frozen=false iter=20000 energy=-1.26974174 Lattice="15.00000000 0.00000000 0.00000000 0.00000000 15.00000000 0.00000000 0.00000000 0.00000000 15.00000000" energy_frozen_part=0.00000000 Properties=species:S:1:pos:R:3:velocities:R:3:Z:I:1
H         9.92724872      12.44258182      10.02873186         0.00000000       0.00000000       0.00000000          1
H        10.92093102       9.95486362      10.82129961         0.00000000       0.00000000       0.00000000          1
H         8.33492577       8.90024430      10.75322128         0.00000000       0.00000000       0.00000000          1
H         9.38552249      10.16975774       8.49736670         0.00000000       0.00000000       0.00000000          1
H         8.87665485      11.17306887      12.28458474         0.00000000       0.00000000       0.00000000          1
H         7.34124367      11.38795220       9.96065732         0.00000000       0.00000000       0.00000000          1
6
pbc=[F, F, F] list_num_par=6 frozen=false iter=20000 energy=-1.26974174 Lattice="15.00000000 0.00000000 0.00000000 0.00000000 15.00000000 0.00000000 0.00000000 0.00000000 15.00000000" energy_frozen_part=0.00000000 Properties=species:S:1:pos:R:3:velocities:R:3:Z:I:1
H         9.92728187      12.44279305      10.02828281         0.00000000       0.00000000       0.00000000          1
H        10.92122471       9.95504372      10.82039329         0.00000000       0.00000000       0.00000000          1
H         8.33520280       8.90040393      10.75309238         0.00000000       0.00000000       0.00000000          1
H         9.38507323      10.17004688       8.49696889         0.00000000       0.00000000       0.00000000          1
H         8.87741032      11.17314773      12.28439972         0.00000000       0.00000000       0.00000000          1
H         7.34125766      11.38815729       9.96097423         0.00000000       0.00000000       0.00000000          1
6
pbc=[F, F, F] list_num_par=6 frozen=false iter=20000 energy=-1.26974174 Lattice="15.00000000 0.00000000 0.00000000 0.00000000 15.00000000 0.00000000 0.00000000 0.00000000 15.00000000" energy_frozen_part=0.00000000 Properties=species:S:1:pos:R:3:velocities:R:3:Z:I:1
H         9.92740680      12.44245730      10.02867374         0.00000000       0.00000000       0.00000000          1
H        10.92094604       9.95471631      10.82132877         0.00000000       0.00000000       0.00000000          1
H         8.33488591       8.90023561      10.75327490         0.00000000       0.00000000       0.00000000          1
H         9.38556161      10.16960939       8.49738552         0.00000000       0.00000000       0.00000000          1
H         8.87673414      11.17307939      12.28456400         0.00000000       0.00000000       0.00000000          1
H         7.34134111      11.38797128       9.96062520         0.00000000       0.00000000       0.00000000          1
6
pbc=[F, F, F] list_num_par=6 frozen=false iter=20000 energy=-1.26974174 Lattice="15.00000000 0.00000000 0.00000000 0.00000000 15.00000000 0.00000000 0.00000000 0.00000000 15.00000000" energy_frozen_part=0.00000000 Properties=species:S:1:pos:R:3:velocities:R:3:Z:I:1
H         9.92759460      12.44273404      10.02846430         0.00000000       0.00000000       0.00000000          1
H        10.92122486       9.95495042      10.82089133         0.00000000       0.00000000       0.00000000          1
H         8.33516109       8.90045575      10.75304732         0.00000000       0.00000000       0.00000000          1
H         9.38561488      10.16995639       8.49711669         0.00000000       0.00000000       0.00000000          1
H         8.87714916      11.17322945      12.28439767         0.00000000       0.00000000       0.00000000          1
H         7.34153524      11.38823748       9.96061872         0.00000000       0.00000000       0.00000000          1
6
pbc=[F, F, F] list_num_par=6 frozen=false iter=20000 energy=-1.26974174 Lattice="15.00000000 0.00000000 0.00000000 0.00000000 15.00000000 0.00000000 0.00000000 0.00000000 15.00000000" energy_frozen_part=0.00000000 Properties=species:S:1:pos:R:3:velocities:R:3:Z:I:1
H         9.92759966      12.44272305      10.02848239         0.00000000       0.00000000       0.00000000          1
H        10.92121189       9.95492849      10.82088786         0.00000000       0.00000000       0.00000000          1
H         8.33515002       8.90045130      10.75305651         0.00000000       0.00000000       0.00000000          1
H         9.38557947      10.16996213       8.49712481         0.00000000       0.00000000       0.00000000          1
H         8.87715844      11.17321782      12.28440932         0.00000000       0.00000000       0.00000000          1
H         7.34152586      11.38824124       9.96064695         0.00000000       0.00000000       0.00000000          1
6
pbc=[F, F, F] list_num_par=6 frozen=false iter=20000 energy=-1.26974174 Lattice="15.00000000 0.00000000 0.00000000 0.00000000 15.00000000 0.00000000 0.00000000 0.00000000 15.00000000" energy_frozen_part=0.00000000 Properties=species:S:1:pos:R:3:velocities:R:3:Z:I:1
H         5.43976070       1.33744041       8.96947407         0.00000000       0.00000000       0.00000000          1
H         7.24040790       2.76266981      12.18426932         0.00000000       0.00000000       0.00000000          1
H         5.94434459       0.37264312      11.54217742         0.00000000       0.00000000       0.00000000          1
H         8.05325666       1.28807517       9.95511310         0.00000000       0.00000000       0.00000000          1
H         4.62691039       2.81203378      11.19863303         0.00000000       0.00000000       0.00000000          1
H         6.73581569       3.72746386       9.61156021         0.00000000       0.00000000       0.00000000          1
6
pbc=[F, F, F] list_num_par=6 frozen=false iter=20000 energy=-1.26974174 Lattice="15.00000000 0.00000000 0.00000000 0.00000000 15.00000000 0.00000000 0.00000000 0.00000000 15.00000000" energy_frozen_part=0.00000000 Properties=species:S:1:pos:R:3:velocities:R:3:Z:I:1
H         9.92733136      12.44252678      10.02864536         0.00000000       0.00000000       0.00000000          1
H        10.92094305       9.95480374      10.82126837         0.00000000       0.00000000       0.00000000          1
H         8.33491000       8.90024244      10.75323005         0.00000000       0.00000000       0.00000000          1
H         9.38552484      10.16967433       8.49734775         0.00000000       0.00000000       0.00000000          1
H         8.87671288      11.17309430      12.28453561         0.00000000       0.00000000       0.00000000          1
H         7.34129634      11.38797629       9.96061429         0.00000000       0.00000000       0.00000000          1
6
pbc=[F, F, F] list_num_par=6 frozen=false iter=20000 energy=-1.26974174 Lattice="15.00000000 0.00000000 0.00000000 0.00000000 15.00000000 0.00000000 0.00000000 0.00000000 15.00000000" energy_frozen_part=0.00000000 Properties=species:S:1:pos:R:3:velocities:R:3:Z:I:1
H         9.92731224      12.44279453      10.02825216         0.00000000       0.00000000       0.00000000          1
H        10.92123213       9.95504867      10.82044381         0.00000000       0.00000000       0.00000000          1
H         8.33520936       8.90043197      10.75313930         0.00000000       0.00000000       0.00000000          1
H         9.38511473      10.17000368       8.49699683         0.00000000       0.00000000       0.00000000          1
H         8.87740938      11.17321664      12.28438870         0.00000000       0.00000000       0.00000000          1
H         7.34128572      11.38816771       9.96094169         0.00000000       0.00000000       0.00000000          1
6
pbc=[F, F, F] list_num_par=6 frozen=false iter=20000 energy=-1.26974174 Lattice="15.00000000 0.00000000 0.00000000 0.00000000 15.00000000 0.00000000 0.00000000 0.00000000 15.00000000" energy_frozen_part=0.00000000 Properties=species:S:1:pos:R:3:velocities:R:3:Z:I:1
H         9.92758672      12.44273836      10.02847566         0.00000000       0.00000000       0.00000000          1
H        10.92122113       9.95495868      10.82089693         0.00000000       0.00000000       0.00000000          1
H         8.33515973       8.90045673      10.75305129         0.00000000       0.00000000       0.00000000          1
H         9.38559928      10.16996107       8.49712850         0.00000000       0.00000000       0.00000000          1
H         8.87715182      11.17323097      12.28441019         0.00000000       0.00000000       0.00000000          1
H         7.34152809      11.38823431       9.96063962         0.00000000       0.00000000       0.00000000          1
6
pbc=[F, F, F] list_num_par=6 frozen=false iter=20000 energy=-1.26974174 Lattice="15.00000000 0.00000000 0.00000000 0.00000000 15.00000000 0.00000000 0.00000000 0.00000000 15.00000000" energy_frozen_part=0.00000000 Properties=species:S:1:pos:R:3:velocities:R:3:Z:I:1
H         5.43982566       1.33734829       8.96947474         0.00000000       0.00000000       0.00000000          1
H         7.24044553       2.76268975      12.18424621         0.00000000       0.00000000       0.00000000          1
H         5.94439098       0.37264496      11.54222305         0.00000000       0.00000000       0.00000000          1
H         8.05331369       1.28802212       9.95514070         0.00000000       0.00000000       0.00000000          1
H         4.62695560       2.81201480      11.19857710         0.00000000       0.00000000       0.00000000          1
H         6.73587897       3.72740175       9.61150016         0.00000000       0.00000000       0.00000000          1
6
pbc=[F, F, F] list_num_par=6 frozen=false iter=20000 energy=-1.26974174 Lattice="15.00000000 0.00000000 0.00000000 0.00000000 15.00000000 0.00000000 0.00000000 0.00000000 15.00000000" energy_frozen_part=0.00000000 Properties=species:S:1:pos:R:3:velocities:R:3:Z:I:1
H         9.92771816      12.44283618      10.02850335         0.00000000       0.00000000       0.00000000          1
H        10.92128243       9.95500170      10.82083961         0.00000000       0.00000000       0.00000000          1
H         8.33518480       8.90060107      10.75303817         0.00000000       0.00000000       0.00000000          1
H         9.38561353      10.17012464       8.49711184         0.00000000       0.00000000       0.00000000          1
H         8.87729057      11.17331595      12.28443592         0.00000000       0.00000000       0.00000000          1
H         7.34161951      11.38843555       9.96070118         0.00000000       0.00000000       0.00000000          1
6
pbc=[F, F, F] list_num_par=6 frozen=false iter=20000 energy=-1.26974174 Lattice="15.00000000 0.00000000 0.00000000 0.00000000 15.00000000 0.00000000 0.00000000 0.00000000 15.00000000" energy_frozen_part=0.00000000 Properties=species:S:1:pos:R:3:velocities:R:3:Z:I:1
H         9.92724529      12.44256654      10.02872910         0.00000000       0.00000000       0.00000000          1
H        10.92092179       9.95485134      10.82129986         0.00000000       0.00000000       0.00000000          1
H         8.33491883       8.90022304      10.75320277         0.00000000       0.00000000       0.00000000          1
H         9.38553047      10.16973212       8.49735899         0.00000000       0.00000000       0.00000000          1
H         8.87663716      11.17304776      12.28457418         0.00000000       0.00000000       0.00000000          1
H         7.34124536      11.38793685       9.96063997         0.00000000       0.00000000       0.00000000          1
6
pbc=[F, F, F] list_num_par=6 frozen=false iter=20000 energy=-1.26974174 Lattice="15.00000000 0.00000000 0.00000000 0.00000000 15.00000000 0.00000000 0.00000000 0.00000000 15.00000000" energy_frozen_part=0.00000000 Properties=species:S:1:pos:R:3:velocities:R:3:Z:I:1
H         9.92756557      12.44273743      10.02847210         0.00000000       0.00000000       0.00000000          1
H        10.92120894       9.95496963      10.82091103         0.00000000       0.00000000       0.00000000          1
H         8.33514616       8.90046396      10.75307818         0.00000000       0.00000000       0.00000000          1
H         9.38557854      10.16995278       8.49713407         0.00000000       0.00000000       0.00000000          1
H         8.87713568      11.17325207      12.28441120         0.00000000       0.00000000       0.00000000          1
H         7.34150553      11.38823458       9.96064552         0.00000000       0.00000000       0.00000000          1
6
pbc=[F, F, F] list_num_par=6 frozen=false iter=20000 energy=-1.26974174 Lattice="15.00000000 0.00000000 0.00000000 0.00000000 15.00000000 0.00000000 0.00000000 0.00000000 15.00000000" energy_frozen_part=0.00000000 Properties=species:S:1:pos:R:3:velocities:R:3:Z:I:1
H         5.43982990       1.33742006       8.96944980         0.00000000       0.00000000       0.00000000          1
H         7.24039623       2.76265602      12.18428741         0.00000000       0.00000000       0.00000000          1
H         5.94435801       0.37262168      11.54216677         0.00000000       0.00000000       0.00000000          1
H         8.05329579       1.28807204       9.95514703         0.00000000       0.00000000       0.00000000          1
H         4.62692346       2.81200962      11.19858818         0.00000000       0.00000000       0.00000000          1
H         6.73586047       3.72745936       9.61157062         0.00000000       0.00000000       0.00000000          1
6
pbc=[F, F, F] list_num_par=6 frozen=false iter=20000 energy=-1.26974174 Lattice="15.00000000 0.00000000 0.00000000 0.00000000 15.00000000 0.00000000 0.00000000 0.00000000 15.00000000" energy_frozen_part=0.00000000 Properties=species:S:1:pos:R:3:velocities:R:3:Z:I:1
H         9.92738774      12.44246113      10.02864900         0.00000000       0.00000000       0.00000000          1
H        10.92094845       9.95469498      10.82119471         0.00000000       0.00000000       0.00000000          1
H         8.33487969       8.90021605      10.75321505         0.00000000       0.00000000       0.00000000          1
H         9.38547302      10.16964837       8.49732355         0.00000000       0.00000000       0.00000000          1
H         8.87679084      11.17302450      12.28454342         0.00000000       0.00000000       0.00000000          1
H         7.34132258      11.38799031       9.96067030         0.00000000       0.00000000       0.00000000          1
6
pbc=[F, F, F] list_num_par=6 frozen=false iter=20000 energy=-1.26974174 Lattice="15.00000000 0.00000000 0.00000000 0.00000000 15.00000000 0.00000000 0.00000000 0.00000000 15.00000000" energy_frozen_part=0.00000000 Properties=species:S:1:pos:R:3:velocities:R:3:Z:I:1
H         9.92739006      12.44244705      10.02865147         0.00000000       0.00000000       0.00000000          1
H        10.92094452       9.95468312      10.82120645         0.00000000       0.00000000       0.00000000          1
H         8.33487397       8.90020635      10.75323287         0.00000000       0.00000000       0.00000000          1
H         9.38546117      10.16964021       8.49733111         0.00000000       0.00000000       0.00000000          1
H         8.87679355      11.17301357      12.28455801         0.00000000       0.00000000       0.00000000          1
H         7.34131683      11.38797636       9.96068555         0.00000000       0.00000000       0.00000000          1
6
pbc=[F, F, F] list_num_par=6 frozen=false iter=20000 energy=-1.26974174 Lattice="15.00000000 0.00000000 0.00000000 0.00000000 15.00000000 0.00000000 0.00000000 0.00000000 15.00000000" energy_frozen_part=0.00000000 Properties=species:S:1:pos:R:3:velocities:R:3:Z:I:1
H         5.43976490       1.33741652       8.96948065         0.00000000       0.00000000       0.00000000          1
H         7.24039718       2.76267147      12.18427932         0.00000000       0.00000000       0.00000000          1
H         5.94434887       0.37263063      11.54219482         0.00000000       0.00000000       0.00000000          1
H         8.05326105       1.28806656       9.95513230         0.00000000       0.00000000       0.00000000          1
H         4.62690393       2.81201606      11.19863002         0.00000000       0.00000000       0.00000000          1
H         6.73580853       3.72744867       9.61155971         0.00000000       0.00000000       0.00000000          1
6
pbc=[F, F, F] list_num_par=6 frozen=false iter=20000 energy=-1.26974174 Lattice="15.00000000 0.00000000 0.00000000 0.00000000 15.00000000 0.00000000 0.00000000 0.00000000 15.00000000" energy_frozen_part=0.00000000 Properties=species:S:1:pos:R:3:velocities:R:3:Z:I:1
H         5.43981431       1.33742011       8.96944999         0.00000000       0.00000000       0.00000000          1
H         7.24039170       2.76268494      12.18427711         0.00000000       0.00000000       0.00000000          1
H         5.94436699       0.37264312      11.54217823         0.00000000       0.00000000       0.00000000          1
H         8.05329243       1.28808643       9.95514408         0.00000000       0.00000000       0.00000000          1
H         4.62691144       2.81200874      11.19858562         0.00000000       0.00000000       0.00000000          1
H         6.73584278       3.72746238       9.61155822         0.00000000       0.00000000       0.00000000          1
6
pbc=[F, F, F] list_num_par=6 frozen=false iter=20000 energy=-1.26974174 Lattice="15.00000000 0.00000000 0.00000000 0.00000000 15.00000000 0.00000000 0.00000000 0.00000000 15.00000000" energy_frozen_part=0.00000000 Properties=species:S:1:pos:R:3:velocities:R:3:Z:I:1
H         5.43980996       1.33741560       8.96945384         0.00000000       0.00000000       0.00000000          1
H         7.24040211       2.76267275      12.18427247         0.00000000       0.00000000       0.00000000          1
H         5.94438194       0.37262863      11.54217046         0.00000000       0.00000000       0.00000000          1
H         8.05329716       1.28807521       9.95512825         0.00000000       0.00000000       0.00000000          1
H         4.62692607       2.81200681      11.19859492         0.00000000       0.00000000       0.00000000          1
H         6.73584567       3.72745145       9.61155030         0.00000000       0.00000000       0.00000000          1
6
pbc=[F, F, F] list_num_par=6 frozen=false iter=20000 energy=-1.26974174 Lattice="15.00000000 0.00000000 0.00000000 0.00000000 15.00000000 0.00000000 0.00000000 0.00000000 15.00000000" energy_frozen_part=0.00000000 Properties=species:S:1:pos:R:3:velocities:R:3:Z:I:1
H         9.92732756      12.44251876      10.02863572         0.00000000       0.00000000       0.00000000          1
H        10.92095923       9.95480128      10.82126194         0.00000000       0.00000000       0.00000000          1
H         8.33493046       8.90023099      10.75323108         0.00000000       0.00000000       0.00000000          1
H         9.38554542      10.16965319       8.49734297         0.00000000       0.00000000       0.00000000          1
H         8.87671992      11.17309172      12.28452200         0.00000000       0.00000000       0.00000000          1
H         7.34130152      11.38794529       9.96059750         0.00000000       0.00000000       0.00000000          1
6
pbc=[F, F, F] list_num_par=6 frozen=false iter=20000 energy=-1.26974174 Lattice="15.00000000 0.00000000 0.00000000 0.00000000 15.00000000 0.00000000 0.00000000 0.00000000 15.00000000" energy_frozen_part=0.00000000 Properties=species:S:1:pos:R:3:velocities:R:3:Z:I:1
H         5.43979362       1.33743690       8.96945339         0.00000000       0.00000000       0.00000000          1
H         7.24039433       2.76264757      12.18428874         0.00000000       0.00000000       0.00000000          1
H         5.94432062       0.37263216      11.54216883         0.00000000       0.00000000       0.00000000          1
H         8.05326890       1.28805894       9.95514667         0.00000000       0.00000000       0.00000000          1
H         4.62691584       2.81203290      11.19859396         0.00000000       0.00000000       0.00000000          1
H         6.73585362       3.72745458       9.61156975         0.00000000       0.00000000       0.00000000          1
6
pbc=[F, F, F] list_num_par=6 frozen=false iter=20000 energy=-1.26974174 Lattice="15.00000000 0.00000000 0.00000000 0.00000000 15.00000000 0.00000000 0.00000000 0.00000000 15.00000000" energy_frozen_part=0.00000000 Properties=species:S:1:pos:R:3:velocities:R:3:Z:I:1
H         9.92732832      12.44251254      10.02864048         0.00000000       0.00000000       0.00000000          1
H        10.92094782       9.95479377      10.82126743         0.00000000       0.00000000       0.00000000          1
H         8.33492228       8.90022573      10.75323405         0.00000000       0.00000000       0.00000000          1
H         9.38554358      10.16965410       8.49734478         0.00000000       0.00000000       0.00000000          1
H         8.87670217      11.17308457      12.28452947         0.00000000       0.00000000       0.00000000          1
H         7.34130283      11.38794663       9.96059544         0.00000000       0.00000000       0.00000000          1
6
pbc=[F, F, F] list_num_par=6 frozen=false iter=20000 energy=-1.26974174 Lattice="15.00000000 0.00000000 0.00000000 0.00000000 15.00000000 0.00000000 0.00000000 0.00000000 15.00000000" energy_frozen_part=0.00000000 Properties=species:S:1:pos:R:3:velocities:R:3:Z:I:1
H         9.92759902      12.44273354      10.02848170         0.00000000       0.00000000       0.00000000          1
H        10.92122870       9.95494673      10.82089787         0.00000000       0.00000000       0.00000000          1
H         8.33516335       8.90045831      10.75304756         0.00000000       0.00000000       0.00000000          1
H         9.38560557      10.16996587       8.49712447         0.00000000       0.00000000       0.00000000          1
H         8.87714752      11.17322540      12.28440489         0.00000000       0.00000000       0.00000000          1
H         7.34153240      11.38823849       9.96063418         0.00000000       0.00000000       0.00000000          1
6
pbc=[F, F, F] list_num_par=6 frozen=false iter=20000 energy=-1.26974174 Lattice="15.00000000 0.00000000 0.00000000 0.00000000 15.00000000 0.00000000 0.00000000 0.00000000 15.00000000" energy_frozen_part=0.00000000 Properties=species:S:1:pos:R:3:velocities:R:3:Z:I:1
H         5.43981357       1.33741104       8.96945526         0.00000000       0.00000000       0.00000000          1
H         7.24040926       2.76267103      12.18427499         0.00000000       0.00000000       0.00000000          1
H         5.94438020       0.37262708      11.54217869         0.00000000       0.00000000       0.00000000          1
H         8.05329903       1.28807743       9.95512896         0.00000000       0.00000000       0.00000000          1
H         4.62692568       2.81199597      11.19859876         0.00000000       0.00000000       0.00000000          1
H         6.73583748       3.72745559       9.61155762         0.00000000       0.00000000       0.00000000          1
6
pbc=[F, F, F] list_num_par=6 frozen=false iter=20000 energy=-1.26974174 Lattice="15.00000000 0.00000000 0.00000000 0.00000000 15.00000000 0.00000000 0.00000000 0.00000000 15.00000000" energy_frozen_part=0.00000000 Properties=species:S:1:pos:R:3:velocities:R:3:Z:I:1
H         9.92732787      12.44278821      10.02825856         0.00000000       0.00000000       0.00000000          1
H        10.92123498       9.95504764      10.82044668         0.00000000       0.00000000       0.00000000          1
H         8.33520014       8.90043612      10.75313193         0.00000000       0.00000000       0.00000000          1
H         9.38511272      10.17000927       8.49699480         0.00000000       0.00000000       0.00000000          1
H         8.87740989      11.17321432      12.28439314         0.00000000       0.00000000       0.00000000          1
H         7.34129892      11.38817908       9.96093776         0.00000000       0.00000000       0.00000000          1
6
pbc=[F, F, F] list_num_par=6 frozen=false iter=20000 energy=-1.26974174 Lattice="15.00000000 0.00000000 0.00000000 0.00000000 15.00000000 0.00000000 0.00000000 0.00000000 15.00000000" energy_frozen_part=0.00000000 Properties=species:S:1:pos:R:3:velocities:R:3:Z:I:1
H         5.43975816       1.33744437       8.96947363         0.00000000       0.00000000       0.00000000          1
H         7.24042230       2.76265967      12.18427747         0.00000000       0.00000000       0.00000000          1
H         5.94435127       0.37263727      11.54217973         0.00000000       0.00000000       0.00000000          1
H         8.05325603       1.28807624       9.95511016         0.00000000       0.00000000       0.00000000          1
H         4.62691881       2.81202670      11.19864413         0.00000000       0.00000000       0.00000000          1
H         6.73582273       3.72746872       9.61156761         0.00000000       0.00000000       0.00000000          1
6
pbc=[F, F, F] list_num_par=6 frozen=false iter=20000 energy=-1.26974174 Lattice="15.00000000 0.00000000 0.00000000 0.00000000 15.00000000 0.00000000 0.00000000 0.00000000 15.00000000" energy_frozen_part=0.00000000 Properties=species:S:1:pos:R:3:velocities:R:3:Z:I:1
H         9.92738829      12.44270086      10.02818865         0.00000000       0.00000000       0.00000000          1
H        10.92106714       9.95487030      10.82040119         0.00000000       0.00000000       0.00000000          1
H         8.33496061       8.90045871      10.75293433         0.00000000       0.00000000       0.00000000          1
H         9.38508900      10.16997953       8.49686628         0.00000000       0.00000000       0.00000000          1
H         8.87725410      11.17317530      12.28425677         0.00000000       0.00000000       0.00000000          1
H         7.34128387      11.38828500       9.96072116         0.00000000       0.00000000       0.00000000          1
6
pbc=[F, F, F] list_num_par=6 frozen=false iter=20000 energy=-1.26974174 Lattice="15.00000000 0.00000000 0.00000000 0.00000000 15.00000000 0.00000000 0.00000000 0.00000000 15.00000000" energy_frozen_part=0.00000000 Properties=species:S:1:pos:R:3:velocities:R:3:Z:I:1
H         9.92757497      12.44273455      10.02850809         0.00000000       0.00000000       0.00000000          1
H        10.92119790       9.95494634      10.82089817         0.00000000       0.00000000       0.00000000          1
H         8.33513441       8.90045512      10.75305392         0.00000000       0.00000000       0.00000000          1
H         9.38557162      10.16998147       8.49713402         0.00000000       0.00000000       0.00000000          1
H         8.87712917      11.17321129      12.28442644         0.00000000       0.00000000       0.00000000          1
H         7.34150852      11.38825474       9.96065651         0.00000000       0.00000000       0.00000000          1
6
pbc=[F, F, F] list_num_par=6 frozen=false iter=20000 energy=-1.26974174 Lattice="15.00000000 0.00000000 0.00000000 0.00000000 15.00000000 0.00000000 0.00000000 0.00000000 15.00000000" energy_frozen_part=0.00000000 Properties=species:S:1:pos:R:3:velocities:R:3:Z:I:1
H         9.92733217      12.44251013      10.02863445         0.00000000       0.00000000       0.00000000          1
H        10.92096303       9.95479751      10.82126599         0.00000000       0.00000000       0.00000000          1
H         8.33493396       8.90022180      10.75322915         0.00000000       0.00000000       0.00000000          1
H         9.38555927      10.16964804       8.49734134         0.00000000       0.00000000       0.00000000          1
H         8.87671926      11.17308488      12.28452537         0.00000000       0.00000000       0.00000000          1
H         7.34131331      11.38793267       9.96059385         0.00000000       0.00000000       0.00000000          1
6
pbc=[F, F, F] list_num_par=6 frozen=false iter=20000 energy=-1.26974174 Lattice="15.00000000 0.00000000 0.00000000 0.00000000 15.00000000 0.00000000 0.00000000 0.00000000 15.00000000" energy_frozen_part=0.00000000 Properties=species:S:1:pos:R:3:velocities:R:3:Z:I:1
H         9.92755870      12.44273186      10.02847073         0.00000000       0.00000000       0.00000000          1
H        10.92122792       9.95497215      10.82088894         0.00000000       0.00000000       0.00000000          1
H         8.33517953       8.90043452      10.75304353         0.00000000       0.00000000       0.00000000          1
H         9.38560209      10.16995940       8.49711729         0.00000000       0.00000000       0.00000000          1
H         8.87713223      11.17321122      12.28439778         0.00000000       0.00000000       0.00000000          1
H         7.34150834      11.38819426       9.96062650         0.00000000       0.00000000       0.00000000          1
6
pbc=[F, F, F] list_num_par=6 frozen=false iter=20000 energy=-1.26974174 Lattice="15.00000000 0.00000000 0.00000000 0.00000000 15.00000000 0.00000000 0.00000000 0.00000000 15.00000000" energy_frozen_part=0.00000000 Properties=species:S:1:pos:R:3:velocities:R:3:Z:I:1
H         5.43973283       1.33743906       8.96947410         0.00000000       0.00000000       0.00000000          1
H         7.24040753       2.76265475      12.18426348         0.00000000       0.00000000       0.00000000          1