6
pbc=[F, F, F] list_num_par=6 frozen=false iter=20000 energy=-1.26974174 Lattice="15.00000000 0.00000000 0.00000000 0.00000000 15.00000000 0.00000000 0.00000000 0.00000000 15.00000000" energy_frozen_part=0.00000000 Properties=species:S:1:pos:R:3:velocities:R:3:Z:I:1
H         7.28294231      13.79528291       3.35898870         0.00000000       0.00000000       0.00000000          1
H         8.47597148      11.29138711       3.02508067         0.00000000       0.00000000       0.00000000          1
H         8.18073861      14.56074015       0.82672602         0.00000000       0.00000000       0.00000000          1
H         9.37376468      12.05684071       0.49282281         0.00000000       0.00000000       0.00000000          1
H         6.65878682      12.23727172       1.12576106         0.00000000       0.00000000       0.00000000          1
H         9.99792276      13.61486166       2.72605210         0.00000000       0.00000000       0.00000000          1
6
pbc=[F, F, F] list_num_par=6 frozen=false iter=20000 energy=-1.26974174 Lattice="15.00000000 0.00000000 0.00000000 0.00000000 15.00000000 0.00000000 0.00000000 0.00000000 15.00000000" energy_frozen_part=0.00000000 Properties=species:S:1:pos:R:3:velocities:R:3:Z:I:1
H         7.28263206      13.79483017       3.35921293         0.00000000       0.00000000       0.00000000          1
H         8.47648072      11.29134579       3.02515502         0.00000000       0.00000000       0.00000000          1
H         8.18049350      14.56086213       0.82714797         0.00000000       0.00000000       0.00000000          1
H         9.37434756      12.05738073       0.49309716         0.00000000       0.00000000       0.00000000          1
H         6.65923682      12.23688212       1.12572409         0.00000000       0.00000000       0.00000000          1
H         9.99774725      13.61532743       2.72657978         0.00000000       0.00000000       0.00000000          1
6
pbc=[F, F, F] list_num_par=6 frozen=false iter=20000 energy=-1.26974174 Lattice="15.00000000 0.00000000 0.00000000 0.00000000 15.00000000 0.00000000 0.00000000 0.00000000 15.00000000" energy_frozen_part=0.00000000 Properties=species:S:1:pos:R:3:velocities:R:3:Z:I:1
H         7.28282476      13.79522009       3.35885405         0.00000000       0.00000000       0.00000000          1
H         8.47585575      11.29132524       3.02496538         0.00000000       0.00000000       0.00000000          1
H         8.18074757      14.56072054       0.82665700         0.00000000       0.00000000       0.00000000          1
H         9.37377827      12.05682211       0.49276762         0.00000000       0.00000000       0.00000000          1
H         6.65876181      12.23724702       1.12557475         0.00000000       0.00000000       0.00000000          1
H         9.99783468      13.61479936       2.72605223         0.00000000       0.00000000       0.00000000          1
6
pbc=[F, F, F] list_num_par=6 frozen=false iter=20000 energy=-1.26974174 Lattice="15.00000000 0.00000000 0.00000000 0.00000000 15.00000000 0.00000000 0.00000000 0.00000000 15.00000000" energy_frozen_part=0.00000000 Properties=species:S:1:pos:R:3:velocities:R:3:Z:I:1
H         6.52344938      13.99068645       2.54828398         0.00000000       0.00000000       0.00000000          1
H         6.97347931      11.98783028       4.44309713         0.00000000       0.00000000       0.00000000          1
H         8.65384596      13.02456772       1.02109211         0.00000000       0.00000000       0.00000000          1
H         9.10388193      11.02171427       2.91590651         0.00000000       0.00000000       0.00000000          1
H         6.57610177      11.31047965       1.76213205         0.00000000       0.00000000       0.00000000          1
H         9.05123577      13.70190999       3.70205734         0.00000000       0.00000000       0.00000000          1
6
pbc=[F, F, F] list_num_par=6 frozen=false iter=20000 energy=-1.26974174 Lattice="15.00000000 0.00000000 0.00000000 0.00000000 15.00000000 0.00000000 0.00000000 0.00000000 15.00000000" energy_frozen_part=0.00000000 Properties=species:S:1:pos:R:3:velocities:R:3:Z:I:1
H         6.52343144      13.99068211       2.54837386         0.00000000       0.00000000       0.00000000          1
H         6.97343634      11.98767604       4.44304691         0.00000000       0.00000000       0.00000000          1
H         8.65385197      13.02467533       1.02114770         0.00000000       0.00000000       0.00000000          1
H         9.10385069      11.02167600       2.91581541         0.00000000       0.00000000       0.00000000          1
H         6.57608126      11.31053872       1.76202780         0.00000000       0.00000000       0.00000000          1
H         9.05120198      13.70181968       3.70216400         0.00000000       0.00000000       0.00000000          1
6
pbc=[F, F, F] list_num_par=6 frozen=false iter=20000 energy=-1.26974174 Lattice="15.00000000 0.00000000 0.00000000 0.00000000 15.00000000 0.00000000 0.00000000 0.00000000 15.00000000" energy_frozen_part=0.00000000 Properties=species:S:1:pos:R:3:velocities:R:3:Z:I:1
H         6.52345055      13.99069576       2.54838926         0.00000000       0.00000000       0.00000000          1
H         6.97345316      11.98768226       4.44304751         0.00000000       0.00000000       0.00000000          1
H         8.65385753      13.02470022       1.02114658         0.00000000       0.00000000       0.00000000          1
H         9.10386756      11.02168779       2.91579922         0.00000000       0.00000000       0.00000000          1
H         6.57609071      11.31055579       1.76201999         0.00000000       0.00000000       0.00000000          1
H         9.05122438      13.70182048       3.70217469         0.00000000       0.00000000       0.00000000          1
6
pbc=[F, F, F] list_num_par=6 frozen=false iter=20000 energy=-1.26974174 Lattice="15.00000000 0.00000000 0.00000000 0.00000000 15.00000000 0.00000000 0.00000000 0.00000000 15.00000000" energy_frozen_part=0.00000000 Properties=species:S:1:pos:R:3:velocities:R:3:Z:I:1
H         7.28290694      13.79523695       3.35888175         0.00000000       0.00000000       0.00000000          1
H         8.47587057      11.29131895       3.02494834         0.00000000       0.00000000       0.00000000          1
H         8.18079149      14.56073314       0.82666494         0.00000000       0.00000000       0.00000000          1
H         9.37375704      12.05680880       0.49273923         0.00000000       0.00000000       0.00000000          1
H         6.65876065      12.23729626       1.12559453         0.00000000       0.00000000       0.00000000          1
H         9.99789997      13.61475573       2.72602126         0.00000000       0.00000000       0.00000000          1
6
pbc=[F, F, F] list_num_par=6 frozen=false iter=20000 energy=-1.26974174 Lattice="15.00000000 0.00000000 0.00000000 0.00000000 15.00000000 0.00000000 0.00000000 0.00000000 15.00000000" energy_frozen_part=0.00000000 Properties=species:S:1:pos:R:3:velocities:R:3:Z:I:1
H         7.28266530      13.79478558       3.35922779         0.00000000       0.00000000       0.00000000          1
H         8.47654789      11.29132654       3.02512076         0.00000000       0.00000000       0.00000000          1
H         8.18043321      14.56085847       0.82714977         0.00000000       0.00000000       0.00000000          1
H         9.37431431      12.05740440       0.49303677         0.00000000       0.00000000       0.00000000          1
H         6.65921345      12.23684714       1.12574934         0.00000000       0.00000000       0.00000000          1
H         9.99776441      13.61534256       2.72651576         0.00000000       0.00000000       0.00000000          1
6
pbc=[F, F, F] list_num_par=6 frozen=false iter=20000 energy=-1.26974174 Lattice="15.00000000 0.00000000 0.00000000 0.00000000 15.00000000 0.00000000 0.00000000 0.00000000 15.00000000" energy_frozen_part=0.00000000 Properties=species:S:1:pos:R:3:velocities:R:3:Z:I:1
H         7.28285557      13.79525135       3.35888898         0.00000000       0.00000000       0.00000000          1
H         8.47585868      11.29134907       3.02498568         0.00000000       0.00000000       0.00000000          1
H         8.18078111      14.56075330       0.82669157         0.00000000       0.00000000       0.00000000          1
H         9.37378045      12.05684350       0.49278477         0.00000000       0.00000000       0.00000000          1
H         6.65877814      12.23730356       1.12559514         0.00000000       0.00000000       0.00000000          1
H         9.99786584      13.61480538       2.72607125         0.00000000       0.00000000       0.00000000          1
6
pbc=[F, F, F] list_num_par=6 frozen=false iter=20000 energy=-1.26974174 Lattice="15.00000000 0.00000000 0.00000000 0.00000000 15.00000000 0.00000000 0.00000000 0.00000000 15.00000000" energy_frozen_part=0.00000000 Properties=species:S:1:pos:R:3:velocities:R:3:Z:I:1
H         6.52341807      13.99069491       2.54839201         0.00000000       0.00000000       0.00000000          1
H         6.97342551      11.98766775       4.44303259         0.00000000       0.00000000       0.00000000          1
H         8.65385256      13.02472185       1.02114820         0.00000000       0.00000000       0.00000000          1
H         9.10386254      11.02170232       2.91579407         0.00000000       0.00000000       0.00000000          1
H         6.57609194      11.31056138       1.76200347         0.00000000       0.00000000       0.00000000          1
H         9.05118229      13.70183218       3.70218185         0.00000000       0.00000000       0.00000000          1
6
pbc=[F, F, F] list_num_par=6 frozen=false iter=20000 energy=-1.26974174 Lattice="15.00000000 0.00000000 0.00000000 0.00000000 15.00000000 0.00000000 0.00000000 0.00000000 15.00000000" energy_frozen_part=0.00000000 Properties=species:S:1:pos:R:3:velocities:R:3:Z:I:1
H         6.51079488      13.97999285       2.56709754         0.00000000       0.00000000       0.00000000          1
H         6.96980994      11.95467158       4.43570474         0.00000000       0.00000000       0.00000000          1
H         8.64274614      13.04075653       1.02537364         0.00000000       0.00000000       0.00000000          1
H         9.10175554      11.01543075       2.89397978         0.00000000       0.00000000       0.00000000          1
H         6.57169776      11.31024087       1.74674206         0.00000000       0.00000000       0.00000000          1
H         9.04085785      13.68518738       3.71433426         0.00000000       0.00000000       0.00000000          1
6
pbc=[F, F, F] list_num_par=6 frozen=false iter=20000 energy=-1.26974174 Lattice="15.00000000 0.00000000 0.00000000 0.00000000 15.00000000 0.00000000 0.00000000 0.00000000 15.00000000" energy_frozen_part=0.00000000 Properties=species:S:1:pos:R:3:velocities:R:3:Z:I:1
H         7.28287462      13.79521781       3.35888490         0.00000000       0.00000000       0.00000000          1
H         8.47585415      11.29130451       3.02498597         0.00000000       0.00000000       0.00000000          1
H         8.18078701      14.56070010       0.82667735         0.00000000       0.00000000       0.00000000          1
H         9.37376537      12.05678862       0.49277455         0.00000000       0.00000000       0.00000000          1
H         6.65876557      12.23725574       1.12560427         0.00000000       0.00000000       0.00000000          1
H         9.99787732      13.61474520       2.72606255         0.00000000       0.00000000       0.00000000          1
6
pbc=[F, F, F] list_num_par=6 frozen=false iter=20000 energy=-1.26974174 Lattice="15.00000000 0.00000000 0.00000000 0.00000000 15.00000000 0.00000000 0.00000000 0.00000000 15.00000000" energy_frozen_part=0.00000000 Properties=species:S:1:pos:R:3:velocities:R:3:Z:I:1
H         6.52340486      13.99069227       2.54840760         0.00000000       0.00000000       0.00000000          1
H         6.97344866      11.98769170       4.44307006         0.00000000       0.00000000       0.00000000          1
H         8.65381324      13.02470313       1.02115058         0.00000000       0.00000000       0.00000000          1
H         9.10385041      11.02169646       2.91581237         0.00000000       0.00000000       0.00000000          1
H         6.57606992      11.31055037       1.76205034         0.00000000       0.00000000       0.00000000          1
H         9.05119485      13.70184371       3.70216914         0.00000000       0.00000000       0.00000000          1
6
pbc=[F, F, F] list_num_par=6 frozen=false iter=20000 energy=-1.26974174 Lattice="15.00000000 0.00000000 0.00000000 0.00000000 15.00000000 0.00000000 0.00000000 0.00000000 15.00000000" energy_frozen_part=0.00000000 Properties=species:S:1:pos:R:3:velocities:R:3:Z:I:1
H         7.28287322      13.79522074       3.35887538         0.00000000       0.00000000       0.00000000          1
H         8.47586450      11.29130955       3.02498671         0.00000000       0.00000000       0.00000000          1
H         8.18079585      14.56069014       0.82666894         0.00000000       0.00000000       0.00000000          1
H         9.37378027      12.05677828       0.49278163         0.00000000       0.00000000       0.00000000          1
H         6.65877159      12.23725799       1.12560178         0.00000000       0.00000000       0.00000000          1
H         9.99787940      13.61475033       2.72605806         0.00000000       0.00000000       0.00000000          1
6
pbc=[F, F, F] list_num_par=6 frozen=false iter=20000 energy=-1.26974174 Lattice="15.00000000 0.00000000 0.00000000 0.00000000 15.00000000 0.00000000 0.00000000 0.00000000 15.00000000" energy_frozen_part=0.00000000 Properties=species:S:1:pos:R:3:velocities:R:3:Z:I:1
H         6.51078601      13.97998331       2.56709853         0.00000000       0.00000000       0.00000000          1
H         6.96980062      11.95466443       4.43570015         0.00000000       0.00000000       0.00000000          1
H         8.64273153      13.04074794       1.02537271         0.00000000       0.00000000       0.00000000          1
H         9.10176087      11.01543245       2.89397445         0.00000000       0.00000000       0.00000000          1
H         6.57169326      11.31022812       1.74674058         0.00000000       0.00000000       0.00000000          1
H         9.04084886      13.68518604       3.71433158         0.00000000       0.00000000       0.00000000          1
6
pbc=[F, F, F] list_num_par=6 frozen=false iter=20000 energy=-1.26974174 Lattice="15.00000000 0.00000000 0.00000000 0.00000000 15.00000000 0.00000000 0.00000000 0.00000000 15.00000000" energy_frozen_part=0.00000000 Properties=species:S:1:pos:R:3:velocities:R:3:Z:I:1
H         7.28283877      13.79528637       3.35890168         0.00000000       0.00000000       0.00000000          1
H         8.47579779      11.29134717       3.02506092         0.00000000       0.00000000       0.00000000          1
H         8.18079145      14.56070729       0.82668524         0.00000000       0.00000000       0.00000000          1
H         9.37375361      12.05677019       0.49285555         0.00000000       0.00000000       0.00000000          1
H         6.65874128      12.23729092       1.12564318         0.00000000       0.00000000       0.00000000          1
H         9.99784852      13.61476789       2.72610420         0.00000000       0.00000000       0.00000000          1
6
pbc=[F, F, F] list_num_par=6 frozen=false iter=20000 energy=-1.26974174 Lattice="15.00000000 0.00000000 0.00000000 0.00000000 15.00000000 0.00000000 0.00000000 0.00000000 15.00000000" energy_frozen_part=0.00000000 Properties=species:S:1:pos:R:3:velocities:R:3:Z:I:1
H         6.52344545      13.99070052       2.54839326         0.00000000       0.00000000       0.00000000          1
H         6.97344268      11.98768344       4.44303932         0.00000000       0.00000000       0.00000000          1
H         8.65386572      13.02470311       1.02115605         0.00000000       0.00000000       0.00000000          1
H         9.10386382      11.02168645       2.91580266         0.00000000       0.00000000       0.00000000          1
H         6.57609366      11.31056075       1.76201752         0.00000000       0.00000000       0.00000000          1
H         9.05121462      13.70182261       3.70218689         0.00000000       0.00000000       0.00000000          1
6
pbc=[F, F, F] list_num_par=6 frozen=false iter=20000 energy=-1.26974174 Lattice="15.00000000 0.00000000 0.00000000 0.00000000 15.00000000 0.00000000 0.00000000 0.00000000 15.00000000" energy_frozen_part=0.00000000 Properties=species:S:1:pos:R:3:velocities:R:3:Z:I:1
H         7.28282462      13.79521823       3.35886446         0.00000000       0.00000000       0.00000000          1
H         8.47583208      11.29131925       3.02497543         0.00000000       0.00000000       0.00000000          1
H         8.18075970      14.56071102       0.82666553         0.00000000       0.00000000       0.00000000          1
H         9.37376623      12.05680813       0.49277873         0.00000000       0.00000000       0.00000000          1
H         6.65875564      12.23725486       1.12558067         0.00000000       0.00000000       0.00000000          1
H         9.99783099      13.61477906       2.72606695         0.00000000       0.00000000       0.00000000          1
6
pbc=[F, F, F] list_num_par=6 frozen=false iter=20000 energy=-1.26974174 Lattice="15.00000000 0.00000000 0.00000000 0.00000000 15.00000000 0.00000000 0.00000000 0.00000000 15.00000000" energy_frozen_part=0.00000000 Properties=species:S:1:pos:R:3:velocities:R:3:Z:I:1
H         6.51076242      13.97996284       2.56709123         0.00000000       0.00000000       0.00000000          1
H         6.96980238      11.95465036       4.43569374         0.00000000       0.00000000       0.00000000          1
H         8.64271575      13.04075164       1.02536977         0.00000000       0.00000000       0.00000000          1
H         9.10176132      11.01544197       2.89397450         0.00000000       0.00000000       0.00000000          1
H         6.57169681      11.31021098       1.74673458         0.00000000       0.00000000       0.00000000          1
H         9.04082805      13.68519252       3.71432528         0.00000000       0.00000000       0.00000000          1
6
pbc=[F, F, F] list_num_par=6 frozen=false iter=20000 energy=-1.26974174 Lattice="15.00000000 0.00000000 0.00000000 0.00000000 15.00000000 0.00000000 0.00000000 0.00000000 15.00000000" energy_frozen_part=0.00000000 Properties=species:S:1:pos:R:3:velocities:R:3:Z:I:1
H         6.52343830      13.99067815       2.54825814         0.00000000       0.00000000       0.00000000          1
H         6.97346635      11.98783958       4.44309265         0.00000000       0.00000000       0.00000000          1
H         8.65383948      13.02455344       1.02107780         0.00000000       0.00000000       0.00000000          1
H         9.10387021      11.02171782       2.91591977         0.00000000       0.00000000       0.00000000          1
H         6.57608828      11.31046375       1.76213291         0.00000000       0.00000000       0.00000000          1
H         9.05121734      13.70192351       3.70204263         0.00000000       0.00000000       0.00000000          1
6
pbc=[F, F, F] list_num_par=6 frozen=false iter=20000 energy=-1.26974174 Lattice="15.00000000 0.00000000 0.00000000 0.00000000 15.00000000 0.00000000 0.00000000 0.00000000 15.00000000" energy_frozen_part=0.00000000 Properties=species:S:1:pos:R:3:velocities:R:3:Z:I:1
H         7.28266373      13.79478312       3.35922472         0.00000000       0.00000000       0.00000000          1
H         8.47654676      11.29132391       3.02511496         0.00000000       0.00000000       0.00000000          1
H         8.18042675      14.56086094       0.82714882         0.00000000       0.00000000       0.00000000          1
H         9.37431546      12.05740575       0.49303680         0.00000000       0.00000000       0.00000000          1
H         6.65922114      12.23684987       1.12574628         0.00000000       0.00000000       0.00000000          1
H         9.99776085      13.61534096       2.72651685         0.00000000       0.00000000       0.00000000          1
6
pbc=[F, F, F] list_num_par=6 frozen=false iter=20000 energy=-1.26974174 Lattice="15.00000000 0.00000000 0.00000000 0.00000000 15.00000000 0.00000000 0.00000000 0.00000000 15.00000000" energy_frozen_part=0.00000000 Properties=species:S:1:pos:R:3:velocities:R:3:Z:I:1
H         7.28264180      13.79477368       3.35922507         0.00000000       0.00000000       0.00000000          1
H         8.47654408      11.29132097       3.02513648         0.00000000       0.00000000       0.00000000          1
H         8.18042729      14.56084050       0.82714123         0.00000000       0.00000000       0.00000000          1
H         9.37433129      12.05739110       0.49305904         0.00000000       0.00000000       0.00000000          1
H         6.65923192      12.23681846       1.12574850         0.00000000       0.00000000       0.00000000          1
H         9.99774300      13.61534467       2.72653628         0.00000000       0.00000000       0.00000000          1
6
pbc=[F, F, F] list_num_par=6 frozen=false iter=20000 energy=-1.26974174 Lattice="15.00000000 0.00000000 0.00000000 0.00000000 15.00000000 0.00000000 0.00000000 0.00000000 15.00000000" energy_frozen_part=0.00000000 Properties=species:S:1:pos:R:3:velocities:R:3:Z:I:1
H         7.28262106      13.79482872       3.35920504         0.00000000       0.00000000       0.00000000          1
H         8.47648634      11.29135361       3.02515167         0.00000000       0.00000000       0.00000000          1
H         8.18048274      14.56087476       0.82715236         0.00000000       0.00000000       0.00000000          1
H         9.37434565      12.05740050       0.49309825         0.00000000       0.00000000       0.00000000          1
H         6.65922543      12.23688118       1.12572067         0.00000000       0.00000000       0.00000000          1
H         9.99774241      13.61534361       2.72657923         0.00000000       0.00000000       0.00000000          1
6
pbc=[F, F, F] list_num_par=6 frozen=false iter=20000 energy=-1.26974174 Lattice="15.00000000 0.00000000 0.00000000 0.00000000 15.00000000 0.00000000 0.00000000 0.00000000 15.00000000" energy_frozen_part=0.00000000 Properties=species:S:1:pos:R:3:velocities:R:3:Z:I:1
H         7.28263283      13.79484327       3.35923773         0.00000000       0.00000000       0.00000000          1
H         8.47648397      11.29136933       3.02518192         0.00000000       0.00000000       0.00000000          1
H         8.18045870      14.56086507       0.82716284         0.00000000       0.00000000       0.00000000          1
H         9.37431092      12.05738791       0.49310709         0.00000000       0.00000000       0.00000000          1
H         6.65920326      12.23688164       1.12576313         0.00000000       0.00000000       0.00000000          1
H         9.99774527      13.61535144       2.72657822         0.00000000       0.00000000       0.00000000          1
6
pbc=[F, F, F] list_num_par=6 frozen=false iter=20000 energy=-1.26974174 Lattice="15.00000000 0.00000000 0.00000000 0.00000000 15.00000000 0.00000000 0.00000000 0.00000000 15.00000000" energy_frozen_part=0.00000000 Properties=species:S:1:pos:R:3:velocities:R:3:Z:I:1
H         6.52337062      13.99066331       2.54821268         0.00000000       0.00000000       0.00000000          1
H         6.97332876      11.98778139       4.44301781         0.00000000       0.00000000       0.00000000          1
H         8.65385182      13.02457801       1.02111749         0.00000000       0.00000000       0.00000000          1
H         9.10380783      11.02170523       2.91592677         0.00000000       0.00000000       0.00000000          1
H         6.57607231      11.31047267       1.76202711         0.00000000       0.00000000       0.00000000          1
H         9.05110210      13.70189661       3.70211379         0.00000000       0.00000000       0.00000000          1
6
pbc=[F, F, F] list_num_par=6 frozen=false iter=20000 energy=-1.26974174 Lattice="15.00000000 0.00000000 0.00000000 0.00000000 15.00000000 0.00000000 0.00000000 0.00000000 15.00000000" energy_frozen_part=0.00000000 Properties=species:S:1:pos:R:3:velocities:R:3:Z:I:1
H         6.51079367      13.97998932       2.56711375         0.00000000       0.00000000       0.00000000          1
H         6.96979731      11.95466838       4.43571601         0.00000000       0.00000000       0.00000000          1
H         8.64274390      13.04073914       1.02540190         0.00000000       0.00000000       0.00000000          1
H         9.10175223      11.01541537       2.89400341         0.00000000       0.00000000       0.00000000          1
H         6.57169049      11.31023192       1.74676151         0.00000000       0.00000000       0.00000000          1
H         9.04086079      13.68517456       3.71435834         0.00000000       0.00000000       0.00000000          1
6
pbc=[F, F, F] list_num_par=6 frozen=false iter=20000 energy=-1.26974174 Lattice="15.00000000 0.00000000 0.00000000 0.00000000 15.00000000 0.00000000 0.00000000 0.00000000 15.00000000" energy_frozen_part=0.00000000 Properties=species:S:1:pos:R:3:velocities:R:3:Z:I:1
H         7.28266698      13.79480088       3.35923792         0.00000000       0.00000000       0.00000000          1
H         8.47655876      11.29134707       3.02514545         0.00000000       0.00000000       0.00000000          1
H         8.18047387      14.56088541       0.82718079         0.00000000       0.00000000       0.00000000          1
H         9.37436346      12.05742811       0.49307697         0.00000000       0.00000000       0.00000000          1
H         6.65925653      12.23686890       1.12574866         0.00000000       0.00000000       0.00000000          1
H         9.99777186      13.61536493       2.72656786         0.00000000       0.00000000       0.00000000          1
6
pbc=[F, F, F] list_num_par=6 frozen=false iter=20000 energy=-1.26974174 Lattice="15.00000000 0.00000000 0.00000000 0.00000000 15.00000000 0.00000000 0.00000000 0.00000000 15.00000000" energy_frozen_part=0.00000000 Properties=species:S:1:pos:R:3:velocities:R:3:Z:I:1
H         6.51077470      13.97993696       2.56709335         0.00000000       0.00000000       0.00000000          1
H         6.96983095      11.95460794       4.43567581         0.00000000       0.00000000       0.00000000          1
H         8.64274763      13.04075874       1.02536267         0.00000000       0.00000000       0.00000000          1
H         9.10180780      11.01542708       2.89395159         0.00000000       0.00000000       0.00000000          1
H         6.57174210      11.31019273       1.74671456         0.00000000       0.00000000       0.00000000          1
H         9.04084383      13.68517635       3.71432885         0.00000000       0.00000000       0.00000000          1
6
pbc=[F, F, F] list_num_par=6 frozen=false iter=20000 energy=-1.26974174 Lattice="15.00000000 0.00000000 0.00000000 0.00000000 15.00000000 0.00000000 0.00000000 0.00000000 15.00000000" energy_frozen_part=0.00000000 Properties=species:S:1:pos:R:3:velocities:R:3:Z:I:1
H         7.28263091      13.79483609       3.35923713         0.00000000       0.00000000       0.00000000          1
H         8.47648071      11.29136354       3.02517396         0.00000000       0.00000000       0.00000000          1
H         8.18046547      14.56087312       0.82716679         0.00000000       0.00000000       0.00000000          1
H         9.37431941      12.05739311       0.49310035         0.00000000       0.00000000       0.00000000          1
H         6.65921204      12.23688999       1.12575434         0.00000000       0.00000000       0.00000000          1
H         9.99773741      13.61534278       2.72657619         0.00000000       0.00000000       0.00000000          1
6
pbc=[F, F, F] list_num_par=6 frozen=false iter=20000 energy=-1.26974174 Lattice="15.00000000 0.00000000 0.00000000 0.00000000 15.00000000 0.00000000 0.00000000 0.00000000 15.00000000" energy_frozen_part=0.00000000 Properties=species:S:1:pos:R:3:velocities:R:3:Z:I:1
H         7.28291199      13.79523848       3.35885914         0.00000000       0.00000000       0.00000000          1
H         8.47586560      11.29131209       3.02494207         0.00000000       0.00000000       0.00000000          1
H         8.18081136      14.56072732       0.82665040         0.00000000       0.00000000       0.00000000          1
H         9.37377234      12.05680333       0.49273553         0.00000000       0.00000000       0.00000000          1
H         6.65877418      12.23729843       1.12557452         0.00000000       0.00000000       0.00000000          1
H         9.99790902      13.61473892       2.72601203         0.00000000       0.00000000       0.00000000          1
6
pbc=[F, F, F] list_num_par=6 frozen=false iter=20000 energy=-1.26974174 Lattice="15.00000000 0.00000000 0.00000000 0.00000000 15.00000000 0.00000000 0.00000000 0.00000000 15.00000000" energy_frozen_part=0.00000000 Properties=species:S:1:pos:R:3:velocities:R:3:Z:I:1
H         7.28293147      13.79528835       3.35897859         0.00000000       0.00000000       0.00000000          1
H         8.47594428      11.29138507       3.02508430         0.00000000       0.00000000       0.00000000          1