6
pbc=[F, F, F] list_num_par=6 energy=-1.26974174 iter=20000 frozen=false Lattice="15.00000000 0.00000000 0.00000000 0.00000000 15.00000000 0.00000000 0.00000000 0.00000000 15.00000000" energy_frozen_part=0.00000000 Properties=species:S:1:pos:R:3:velocities:R:3:Z:I:1
H         2.78083471      10.46547908       4.77610142         0.00000000       0.00000000       0.00000000          1
H         0.49547936       9.38070176       3.59090388         0.00000000       0.00000000       0.00000000          1
H         2.11052811      11.14811671       2.15141658         0.00000000       0.00000000       0.00000000          1
H         2.71464043       7.75849916       4.08897506         0.00000000       0.00000000       0.00000000          1
H         4.32969036       9.52591445       2.64948214         0.00000000       0.00000000       0.00000000          1
H         2.04434535       8.44113344       1.46428109         0.00000000       0.00000000       0.00000000          1
6
pbc=[F, F, F] list_num_par=6 energy=-1.26974174 iter=20000 frozen=false Lattice="15.00000000 0.00000000 0.00000000 0.00000000 15.00000000 0.00000000 0.00000000 0.00000000 15.00000000" energy_frozen_part=0.00000000 Properties=species:S:1:pos:R:3:velocities:R:3:Z:I:1
H         2.75339099      10.45599672       4.79347246         0.00000000       0.00000000       0.00000000          1
H         0.48956728       9.36219733       3.57569252         0.00000000       0.00000000       0.00000000          1
H         2.11511348      11.14016192       2.16121132         0.00000000       0.00000000       0.00000000          1
H         2.70980326       7.74999367       4.10070841         0.00000000       0.00000000       0.00000000          1
H         4.33534009       9.52795034       2.68623583         0.00000000       0.00000000       0.00000000          1
H         2.07151760       8.43415864       1.46844895         0.00000000       0.00000000       0.00000000          1
6
pbc=[F, F, F] list_num_par=6 energy=-1.26974174 iter=20000 frozen=false Lattice="15.00000000 0.00000000 0.00000000 0.00000000 15.00000000 0.00000000 0.00000000 0.00000000 15.00000000" energy_frozen_part=0.00000000 Properties=species:S:1:pos:R:3:velocities:R:3:Z:I:1
H         2.78063096      10.46502783       4.77659872         0.00000000       0.00000000       0.00000000          1
H         0.49553209       9.38023623       3.59093489         0.00000000       0.00000000       0.00000000          1
H         2.11044266      11.14825971       2.15203192         0.00000000       0.00000000       0.00000000          1
H         2.71488852       7.75821513       4.08874220         0.00000000       0.00000000       0.00000000          1
H         4.32979971       9.52624713       2.64984770         0.00000000       0.00000000       0.00000000          1
H         2.04469355       8.44144871       1.46418077         0.00000000       0.00000000       0.00000000          1
6
pbc=[F, F, F] list_num_par=6 energy=-1.26974174 iter=20000 frozen=false Lattice="15.00000000 0.00000000 0.00000000 0.00000000 15.00000000 0.00000000 0.00000000 0.00000000 15.00000000" energy_frozen_part=0.00000000 Properties=species:S:1:pos:R:3:velocities:R:3:Z:I:1
H         2.75341734      10.45598075       4.79344728         0.00000000       0.00000000       0.00000000          1
H         0.48957284       9.36222976       3.57565586         0.00000000       0.00000000       0.00000000          1
H         2.11516231      11.14014466       2.16118570         0.00000000       0.00000000       0.00000000          1
H         2.70976565       7.74997195       4.10069994         0.00000000       0.00000000       0.00000000          1
H         4.33535620       9.52789274       2.68622260         0.00000000       0.00000000       0.00000000          1
H         2.07151188       8.43413937       1.46842895         0.00000000       0.00000000       0.00000000          1
6
pbc=[F, F, F] list_num_par=6 energy=-1.26974174 iter=20000 frozen=false Lattice="15.00000000 0.00000000 0.00000000 0.00000000 15.00000000 0.00000000 0.00000000 0.00000000 15.00000000" energy_frozen_part=0.00000000 Properties=species:S:1:pos:R:3:velocities:R:3:Z:I:1
H         2.78041466      10.46513050       4.77655063         0.00000000       0.00000000       0.00000000          1
H         0.49530732       9.38043397       3.59080538         0.00000000       0.00000000       0.00000000          1
H         2.11041434      11.14830082       2.15193157         0.00000000       0.00000000       0.00000000          1
H         2.71452873       7.75829759       4.08879940         0.00000000       0.00000000       0.00000000          1
H         4.32963255       9.52616388       2.64992128         0.00000000       0.00000000       0.00000000          1
H         2.04452895       8.44147005       1.46417199         0.00000000       0.00000000       0.00000000          1
6
pbc=[F, F, F] list_num_par=6 energy=-1.26974174 iter=20000 frozen=false Lattice="15.00000000 0.00000000 0.00000000 0.00000000 15.00000000 0.00000000 0.00000000 0.00000000 15.00000000" energy_frozen_part=0.00000000 Properties=species:S:1:pos:R:3:velocities:R:3:Z:I:1
H         2.78041466      10.46513050       4.77655063         0.00000000       0.00000000       0.00000000          1
H         0.49530157       9.38044165       3.59079673         0.00000000       0.00000000       0.00000000          1
H         2.11041631      11.14830295       2.15192390         0.00000000       0.00000000       0.00000000          1
H         2.71452326       7.75829701       4.08879982         0.00000000       0.00000000       0.00000000          1
H         4.32963906       9.52616620       2.64992543         0.00000000       0.00000000       0.00000000          1
H         2.04452932       8.44147802       1.46417575         0.00000000       0.00000000       0.00000000          1
6
pbc=[F, F, F] list_num_par=6 energy=-1.26974174 iter=20000 frozen=false Lattice="15.00000000 0.00000000 0.00000000 0.00000000 15.00000000 0.00000000 0.00000000 0.00000000 15.00000000" energy_frozen_part=0.00000000 Properties=species:S:1:pos:R:3:velocities:R:3:Z:I:1
H         2.78067420      10.46504178       4.77659847         0.00000000       0.00000000       0.00000000          1
H         0.49556368       9.38024384       3.59093875         0.00000000       0.00000000       0.00000000          1
H         2.11048230      11.14825875       2.15204002         0.00000000       0.00000000       0.00000000          1
H         2.71491222       7.75822804       4.08876158         0.00000000       0.00000000       0.00000000          1
H         4.32983655       9.52624614       2.64985489         0.00000000       0.00000000       0.00000000          1
H         2.04473364       8.44144926       1.46419449         0.00000000       0.00000000       0.00000000          1
6
pbc=[F, F, F] list_num_par=6 energy=-1.26974174 iter=20000 frozen=false Lattice="15.00000000 0.00000000 0.00000000 0.00000000 15.00000000 0.00000000 0.00000000 0.00000000 15.00000000" energy_frozen_part=0.00000000 Properties=species:S:1:pos:R:3:velocities:R:3:Z:I:1
H         2.75341489      10.45598348       4.79347953         0.00000000       0.00000000       0.00000000          1
H         0.48958067       9.36220177       3.57571033         0.00000000       0.00000000       0.00000000          1
H         2.11513607      11.14014805       2.16121677         0.00000000       0.00000000       0.00000000          1
H         2.70979882       7.74997002       4.10072631         0.00000000       0.00000000       0.00000000          1
H         4.33535014       9.52791857       2.68624324         0.00000000       0.00000000       0.00000000          1
H         2.07151141       8.43413496       1.46846942         0.00000000       0.00000000       0.00000000          1
6
pbc=[F, F, F] list_num_par=6 energy=-1.26974174 iter=20000 frozen=false Lattice="15.00000000 0.00000000 0.00000000 0.00000000 15.00000000 0.00000000 0.00000000 0.00000000 15.00000000" energy_frozen_part=0.00000000 Properties=species:S:1:pos:R:3:velocities:R:3:Z:I:1
H         2.76990610      10.45568119       4.79131069         0.00000000       0.00000000       0.00000000          1
H         0.50532851       9.38360119       3.55573744         0.00000000       0.00000000       0.00000000          1
H         2.15201528      11.15558714       2.15832415         0.00000000       0.00000000       0.00000000          1
H         2.71065036       7.75301481       4.08678860         0.00000000       0.00000000       0.00000000          1
H         4.35733891       9.52499531       2.68936073         0.00000000       0.00000000       0.00000000          1
H         2.09275753       8.45292138       1.45379527         0.00000000       0.00000000       0.00000000          1
6
pbc=[F, F, F] list_num_par=6 energy=-1.26974174 iter=20000 frozen=false Lattice="15.00000000 0.00000000 0.00000000 0.00000000 15.00000000 0.00000000 0.00000000 0.00000000 15.00000000" energy_frozen_part=0.00000000 Properties=species:S:1:pos:R:3:velocities:R:3:Z:I:1
H         2.76986333      10.45571157       4.79138394         0.00000000       0.00000000       0.00000000          1
H         0.50531190       9.38374616       3.55568486         0.00000000       0.00000000       0.00000000          1
H         2.15210762      11.15572944       2.15839140         0.00000000       0.00000000       0.00000000          1
H         2.71056635       7.75307241       4.08677115         0.00000000       0.00000000       0.00000000          1
H         4.35736304       9.52505134       2.68947528         0.00000000       0.00000000       0.00000000          1
H         2.09280237       8.45308194       1.45378197         0.00000000       0.00000000       0.00000000          1
6
pbc=[F, F, F] list_num_par=6 energy=-1.26974174 iter=20000 frozen=false Lattice="15.00000000 0.00000000 0.00000000 0.00000000 15.00000000 0.00000000 0.00000000 0.00000000 15.00000000" energy_frozen_part=0.00000000 Properties=species:S:1:pos:R:3:velocities:R:3:Z:I:1
H         2.78068940      10.46498571       4.77664415         0.00000000       0.00000000       0.00000000          1
H         0.49555981       9.38018443       3.59103057         0.00000000       0.00000000       0.00000000          1
H         2.11044764      11.14818940       2.15208684         0.00000000       0.00000000       0.00000000          1
H         2.71491841       7.75816946       4.08882087         0.00000000       0.00000000       0.00000000          1
H         4.32981123       9.52618097       2.64987334         0.00000000       0.00000000       0.00000000          1
H         2.04467936       8.44137528       1.46425761         0.00000000       0.00000000       0.00000000          1
6
pbc=[F, F, F] list_num_par=6 energy=-1.26974174 iter=20000 frozen=false Lattice="15.00000000 0.00000000 0.00000000 0.00000000 15.00000000 0.00000000 0.00000000 0.00000000 15.00000000" energy_frozen_part=0.00000000 Properties=species:S:1:pos:R:3:velocities:R:3:Z:I:1
H         2.76990592      10.45573675       4.79131531         0.00000000       0.00000000       0.00000000          1
H         0.50533559       9.38364035       3.55575951         0.00000000       0.00000000       0.00000000          1
H         2.15202452      11.15561119       2.15831604         0.00000000       0.00000000       0.00000000          1
H         2.71065645       7.75305265       4.08682622         0.00000000       0.00000000       0.00000000          1
H         4.35733966       9.52502291       2.68938918         0.00000000       0.00000000       0.00000000          1
H         2.09276762       8.45293697       1.45382606         0.00000000       0.00000000       0.00000000          1
6
pbc=[F, F, F] list_num_par=6 energy=-1.26974174 iter=20000 frozen=false Lattice="15.00000000 0.00000000 0.00000000 0.00000000 15.00000000 0.00000000 0.00000000 0.00000000 15.00000000" energy_frozen_part=0.00000000 Properties=species:S:1:pos:R:3:velocities:R:3:Z:I:1
H         2.78066186      10.46501435       4.77662031         0.00000000       0.00000000       0.00000000          1
H         0.49554222       9.38023967       3.59096534         0.00000000       0.00000000       0.00000000          1
H         2.11043625      11.14827981       2.15207395         0.00000000       0.00000000       0.00000000          1
H         2.71490022       7.75821639       4.08872837         0.00000000       0.00000000       0.00000000          1
H         4.32979887       9.52625777       2.64983502         0.00000000       0.00000000       0.00000000          1
H         2.04468167       8.44147416       1.46418124         0.00000000       0.00000000       0.00000000          1
6
pbc=[F, F, F] list_num_par=6 energy=-1.26974174 iter=20000 frozen=false Lattice="15.00000000 0.00000000 0.00000000 0.00000000 15.00000000 0.00000000 0.00000000 0.00000000 15.00000000" energy_frozen_part=0.00000000 Properties=species:S:1:pos:R:3:velocities:R:3:Z:I:1
H         2.78066372      10.46501035       4.77661929         0.00000000       0.00000000       0.00000000          1
H         0.49553975       9.38023507       3.59096434         0.00000000       0.00000000       0.00000000          1
H         2.11043265      11.14828065       2.15207668         0.00000000       0.00000000       0.00000000          1
H         2.71489927       7.75820995       4.08871882         0.00000000       0.00000000       0.00000000          1
H         4.32979732       9.52625586       2.64983770         0.00000000       0.00000000       0.00000000          1
H         2.04468070       8.44148430       1.46417500         0.00000000       0.00000000       0.00000000          1
6
pbc=[F, F, F] list_num_par=6 energy=-1.26974174 iter=20000 frozen=false Lattice="15.00000000 0.00000000 0.00000000 0.00000000 15.00000000 0.00000000 0.00000000 0.00000000 15.00000000" energy_frozen_part=0.00000000 Properties=species:S:1:pos:R:3:velocities:R:3:Z:I:1
H         2.78065165      10.46502075       4.77659188         0.00000000       0.00000000       0.00000000          1
H         0.49554576       9.38023656       3.59092637         0.00000000       0.00000000       0.00000000          1
H         2.11047143      11.14824523       2.15202550         0.00000000       0.00000000       0.00000000          1
H         2.71488154       7.75820286       4.08875261         0.00000000       0.00000000       0.00000000          1
H         4.32980768       9.52621575       2.64985718         0.00000000       0.00000000       0.00000000          1
H         2.04470547       8.44142730       1.46418684         0.00000000       0.00000000       0.00000000          1
6
pbc=[F, F, F] list_num_par=6 energy=-1.26974174 iter=20000 frozen=false Lattice="15.00000000 0.00000000 0.00000000 0.00000000 15.00000000 0.00000000 0.00000000 0.00000000 15.00000000" energy_frozen_part=0.00000000 Properties=species:S:1:pos:R:3:velocities:R:3:Z:I:1
H         2.78042247      10.46512247       4.77656571         0.00000000       0.00000000       0.00000000          1
H         0.49529711       9.38046202       3.59080650         0.00000000       0.00000000       0.00000000          1
H         2.11042563      11.14831413       2.15194107         0.00000000       0.00000000       0.00000000          1
H         2.71449484       7.75829156       4.08879257         0.00000000       0.00000000       0.00000000          1
H         4.32962968       9.52614080       2.64992796         0.00000000       0.00000000       0.00000000          1
H         2.04450366       8.44148924       1.46417392         0.00000000       0.00000000       0.00000000          1
6
pbc=[F, F, F] list_num_par=6 energy=-1.26974174 iter=20000 frozen=false Lattice="15.00000000 0.00000000 0.00000000 0.00000000 15.00000000 0.00000000 0.00000000 0.00000000 15.00000000" energy_frozen_part=0.00000000 Properties=species:S:1:pos:R:3:velocities:R:3:Z:I:1
H         2.78086119      10.46557300       4.77609199         0.00000000       0.00000000       0.00000000          1
H         0.49551454       9.38076919       3.59089645         0.00000000       0.00000000       0.00000000          1
H         2.11056088      11.14817409       2.15139192         0.00000000       0.00000000       0.00000000          1
H         2.71467183       7.75858041       4.08898941         0.00000000       0.00000000       0.00000000          1
H         4.32972763       9.52597982       2.64948128         0.00000000       0.00000000       0.00000000          1
H         2.04437805       8.44118351       1.46429190         0.00000000       0.00000000       0.00000000          1
6
pbc=[F, F, F] list_num_par=6 energy=-1.26974174 iter=20000 frozen=false Lattice="15.00000000 0.00000000 0.00000000 0.00000000 15.00000000 0.00000000 0.00000000 0.00000000 15.00000000" energy_frozen_part=0.00000000 Properties=species:S:1:pos:R:3:velocities:R:3:Z:I:1
H         2.78041768      10.46513608       4.77654862         0.00000000       0.00000000       0.00000000          1
H         0.49530068       9.38047270       3.59079165         0.00000000       0.00000000       0.00000000          1
H         2.11043769      11.14831329       2.15192449         0.00000000       0.00000000       0.00000000          1
H         2.71450788       7.75830750       4.08880473         0.00000000       0.00000000       0.00000000          1
H         4.32963970       9.52614743       2.64993082         0.00000000       0.00000000       0.00000000          1
H         2.04451673       8.44148205       1.46417498         0.00000000       0.00000000       0.00000000          1
6
pbc=[F, F, F] list_num_par=6 energy=-1.26974174 iter=20000 frozen=false Lattice="15.00000000 0.00000000 0.00000000 0.00000000 15.00000000 0.00000000 0.00000000 0.00000000 15.00000000" energy_frozen_part=0.00000000 Properties=species:S:1:pos:R:3:velocities:R:3:Z:I:1
H         2.78085611      10.46556059       4.77609943         0.00000000       0.00000000       0.00000000          1
H         0.49551134       9.38074844       3.59090666         0.00000000       0.00000000       0.00000000          1
H         2.11055720      11.14815888       2.15140238         0.00000000       0.00000000       0.00000000          1
H         2.71468461       7.75857061       4.08898395         0.00000000       0.00000000       0.00000000          1
H         4.32972637       9.52597932       2.64948265         0.00000000       0.00000000       0.00000000          1
H         2.04437731       8.44116818       1.46429023         0.00000000       0.00000000       0.00000000          1
6
pbc=[F, F, F] list_num_par=6 energy=-1.26974174 iter=20000 frozen=false Lattice="15.00000000 0.00000000 0.00000000 0.00000000 15.00000000 0.00000000 0.00000000 0.00000000 15.00000000" energy_frozen_part=0.00000000 Properties=species:S:1:pos:R:3:velocities:R:3:Z:I:1
H         2.78086847      10.46550012       4.77609156         0.00000000       0.00000000       0.00000000          1
H         0.49551720       9.38068490       3.59091932         0.00000000       0.00000000       0.00000000          1
H         2.11054303      11.14810365       2.15140183         0.00000000       0.00000000       0.00000000          1
H         2.71470722       7.75851563       4.08898559         0.00000000       0.00000000       0.00000000          1
H         4.32972213       9.52593342       2.64946167         0.00000000       0.00000000       0.00000000          1
H         2.04437402       8.44111690       1.46429822         0.00000000       0.00000000       0.00000000          1
6
pbc=[F, F, F] list_num_par=6 energy=-1.26974174 iter=20000 frozen=false Lattice="15.00000000 0.00000000 0.00000000 0.00000000 15.00000000 0.00000000 0.00000000 0.00000000 15.00000000" energy_frozen_part=0.00000000 Properties=species:S:1:pos:R:3:velocities:R:3:Z:I:1
H         2.76986712      10.45571477       4.79137860         0.00000000       0.00000000       0.00000000          1
H         0.50531478       9.38374132       3.55568597         0.00000000       0.00000000       0.00000000          1
H         2.15210835      11.15571987       2.15838803         0.00000000       0.00000000       0.00000000          1
H         2.71057034       7.75307093       4.08676813         0.00000000       0.00000000       0.00000000          1
H         4.35736289       9.52505591       2.68947098         0.00000000       0.00000000       0.00000000          1
H         2.09280497       8.45307123       1.45378408         0.00000000       0.00000000       0.00000000          1
6
pbc=[F, F, F] list_num_par=6 energy=-1.26974174 iter=20000 frozen=false Lattice="15.00000000 0.00000000 0.00000000 0.00000000 15.00000000 0.00000000 0.00000000 0.00000000 15.00000000" energy_frozen_part=0.00000000 Properties=species:S:1:pos:R:3:velocities:R:3:Z:I:1
H         2.75342467      10.45597548       4.79347876         0.00000000       0.00000000       0.00000000          1
H         0.48957990       9.36220496       3.57571728         0.00000000       0.00000000       0.00000000          1
H         2.11512928      11.14014292       2.16121432         0.00000000       0.00000000       0.00000000          1
H         2.70979458       7.74996903       4.10072822         0.00000000       0.00000000       0.00000000          1
H         4.33534001       9.52790909       2.68623344         0.00000000       0.00000000       0.00000000          1
H         2.07149514       8.43413160       1.46846919         0.00000000       0.00000000       0.00000000          1
6
pbc=[F, F, F] list_num_par=6 energy=-1.26974174 iter=20000 frozen=false Lattice="15.00000000 0.00000000 0.00000000 0.00000000 15.00000000 0.00000000 0.00000000 0.00000000 15.00000000" energy_frozen_part=0.00000000 Properties=species:S:1:pos:R:3:velocities:R:3:Z:I:1
H         2.76990932      10.45572615       4.79131253         0.00000000       0.00000000       0.00000000          1
H         0.50532354       9.38363178       3.55577000         0.00000000       0.00000000       0.00000000          1
H         2.15200608      11.15560594       2.15832545         0.00000000       0.00000000       0.00000000          1
H         2.71065361       7.75305202       4.08681343         0.00000000       0.00000000       0.00000000          1
H         4.35733296       9.52502356       2.68937166         0.00000000       0.00000000       0.00000000          1
H         2.09274990       8.45293800       1.45381840         0.00000000       0.00000000       0.00000000          1
6
pbc=[F, F, F] list_num_par=6 energy=-1.26974174 iter=20000 frozen=false Lattice="15.00000000 0.00000000 0.00000000 0.00000000 15.00000000 0.00000000 0.00000000 0.00000000 15.00000000" energy_frozen_part=0.00000000 Properties=species:S:1:pos:R:3:velocities:R:3:Z:I:1
H         2.78042247      10.46513595       4.77655001         0.00000000       0.00000000       0.00000000          1
H         0.49530436       9.38046814       3.59079792         0.00000000       0.00000000       0.00000000          1
H         2.11042616      11.14831811       2.15192210         0.00000000       0.00000000       0.00000000          1
H         2.71449898       7.75830145       4.08880282         0.00000000       0.00000000       0.00000000          1
H         4.32963126       9.52614955       2.64992197         0.00000000       0.00000000       0.00000000          1
H         2.04451396       8.44148062       1.46417513         0.00000000       0.00000000       0.00000000          1
6
pbc=[F, F, F] list_num_par=6 energy=-1.26974174 iter=20000 frozen=false Lattice="15.00000000 0.00000000 0.00000000 0.00000000 15.00000000 0.00000000 0.00000000 0.00000000 15.00000000" energy_frozen_part=0.00000000 Properties=species:S:1:pos:R:3:velocities:R:3:Z:I:1
H         2.75342303      10.45598392       4.79344966         0.00000000       0.00000000       0.00000000          1
H         0.48958471       9.36223197       3.57566615         0.00000000       0.00000000       0.00000000          1
H         2.11517074      11.14015587       2.16118703         0.00000000       0.00000000       0.00000000          1
H         2.70977976       7.74997832       4.10070676         0.00000000       0.00000000       0.00000000          1
H         4.33535934       9.52790044       2.68621782         0.00000000       0.00000000       0.00000000          1
H         2.07151837       8.43414733       1.46843940         0.00000000       0.00000000       0.00000000          1
6
pbc=[F, F, F] list_num_par=6 energy=-1.26974174 iter=20000 frozen=false Lattice="15.00000000 0.00000000 0.00000000 0.00000000 15.00000000 0.00000000 0.00000000 0.00000000 15.00000000" energy_frozen_part=0.00000000 Properties=species:S:1:pos:R:3:velocities:R:3:Z:I:1
H         2.78088056      10.46556711       4.77609915         0.00000000       0.00000000       0.00000000          1
H         0.49552618       9.38076667       3.59092092         0.00000000       0.00000000       0.00000000          1
H         2.11056269      11.14817904       2.15140298         0.00000000       0.00000000       0.00000000          1
H         2.71469524       7.75857604       4.08898818         0.00000000       0.00000000       0.00000000          1
H         4.32973303       9.52598825       2.64947340         0.00000000       0.00000000       0.00000000          1
H         2.04438459       8.44118955       1.46430023         0.00000000       0.00000000       0.00000000          1
6
pbc=[F, F, F] list_num_par=6 energy=-1.26974174 iter=20000 frozen=false Lattice="15.00000000 0.00000000 0.00000000 0.00000000 15.00000000 0.00000000 0.00000000 0.00000000 15.00000000" energy_frozen_part=0.00000000 Properties=species:S:1:pos:R:3:velocities:R:3:Z:I:1
H         2.75339603      10.45597515       4.79344828         0.00000000       0.00000000       0.00000000          1
H         0.48957115       9.36222344       3.57563436         0.00000000       0.00000000       0.00000000          1
H         2.11518072      11.14014133       2.16117209         0.00000000       0.00000000       0.00000000          1
H         2.70975286       7.74996324       4.10070274         0.00000000       0.00000000       0.00000000          1
H         4.33536138       9.52787476       2.68624986         0.00000000       0.00000000       0.00000000          1
H         2.07153544       8.43413176       1.46842310         0.00000000       0.00000000       0.00000000          1
6
pbc=[F, F, F] list_num_par=6 energy=-1.26974174 iter=20000 frozen=false Lattice="15.00000000 0.00000000 0.00000000 0.00000000 15.00000000 0.00000000 0.00000000 0.00000000 15.00000000" energy_frozen_part=0.00000000 Properties=species:S:1:pos:R:3:velocities:R:3:Z:I:1
H         2.75339682      10.45598032       4.79344613         0.00000000       0.00000000       0.00000000          1
H         0.48957081       9.36222825       3.57563507         0.00000000       0.00000000       0.00000000          1
H         2.11518179      11.14012657       2.16116014         0.00000000       0.00000000       0.00000000          1
H         2.70975171       7.74997319       4.10071946         0.00000000       0.00000000       0.00000000          1
H         4.33536792       9.52787385       2.68624794         0.00000000       0.00000000       0.00000000          1
H         2.07153746       8.43411142       1.46844180         0.00000000       0.00000000       0.00000000          1
6
pbc=[F, F, F] list_num_par=6 energy=-1.26974174 iter=20000 frozen=false Lattice="15.00000000 0.00000000 0.00000000 0.00000000 15.00000000 0.00000000 0.00000000 0.00000000 15.00000000" energy_frozen_part=0.00000000 Properties=species:S:1:pos:R:3:velocities:R:3:Z:I:1
H         2.78041733      10.46514292       4.77654376         0.00000000       0.00000000       0.00000000          1
H         0.49529552       9.38047001       3.59080051         0.00000000       0.00000000       0.00000000          1
H         2.11043209      11.14831045       2.15191431         0.00000000       0.00000000       0.00000000          1
H         2.71450472       7.75830920       4.08880791         0.00000000       0.00000000       0.00000000          1
H         4.32963829       9.52614674       2.64992162         0.00000000       0.00000000       0.00000000          1
H         2.04451049       8.44147644       1.46418105         0.00000000       0.00000000       0.00000000          1
6
pbc=[F, F, F] list_num_par=6 energy=-1.26974174 iter=20000 frozen=false Lattice="15.00000000 0.00000000 0.00000000 0.00000000 15.00000000 0.00000000 0.00000000 0.00000000 15.00000000" energy_frozen_part=0.00000000 Properties=species:S:1:pos:R:3:velocities:R:3:Z:I:1
H         2.78068489      10.46499347       4.77667907         0.00000000       0.00000000       0.00000000          1
H         0.49555361       9.38021005       3.59104683         0.00000000       0.00000000       0.00000000          1
H         2.11046238      11.14821254       2.15211740         0.00000000       0.00000000       0.00000000          1
H         2.71489767       7.75817956       4.08883957         0.00000000       0.00000000       0.00000000          1
H         4.32981123       9.52618000       2.64991123         0.00000000       0.00000000       0.00000000          1
H         2.04467426       8.44140355       1.46428363         0.00000000       0.00000000       0.00000000          1
6
pbc=[F, F, F] list_num_par=6 energy=-1.26974174 iter=20000 frozen=false Lattice="15.00000000 0.00000000 0.00000000 0.00000000 15.00000000 0.00000000 0.00000000 0.00000000 15.00000000" energy_frozen_part=0.00000000 Properties=species:S:1:pos:R:3:velocities:R:3:Z:I:1
H         2.75338561      10.45601724       4.79342528         0.00000000       0.00000000       0.00000000          1
H         0.48955707       9.36224763       3.57561470         0.00000000       0.00000000       0.00000000          1