6
pbc=[F, F, F] list_num_par=6 frozen=false iter=9 energy=60.51529206 Lattice="15.00000000 0.00000000 0.00000000 0.00000000 15.00000000 0.00000000 0.00000000 0.00000000 15.00000000" energy_frozen_part=0.00000000 Properties=species:S:1:pos:R:3:velocities:R:3:Z:I:1
H         4.17221993       3.20736922      10.81108530         0.00000000       0.00000000       0.00000000          1
H         4.77091070       1.89072494      10.05075469         0.00000000       0.00000000       0.00000000          1
H        12.57698769       7.97147611       1.34941426         0.00000000       0.00000000       0.00000000          1
H         7.93555032       6.35107873      10.73283905         0.00000000       0.00000000       0.00000000          1
H         6.51585772       5.45545682       8.50729792         0.00000000       0.00000000       0.00000000          1
H        14.18642100      10.46422462       8.63749644         0.00000000       0.00000000       0.00000000          1
6
pbc=[F, F, F] list_num_par=6 frozen=false iter=19 energy=8.71815857 Lattice="15.00000000 0.00000000 0.00000000 0.00000000 15.00000000 0.00000000 0.00000000 0.00000000 15.00000000" energy_frozen_part=0.00000000 Properties=species:S:1:pos:R:3:velocities:R:3:Z:I:1
H         3.24909487      12.72935225       8.96738879         0.00000000       0.00000000       0.00000000          1
H         5.18940505      12.37951137       7.89192002         0.00000000       0.00000000       0.00000000          1
H        14.87937780       6.55290178       0.24743000         0.00000000       0.00000000       0.00000000          1
H        13.13526199       7.61492628      13.87629654         0.00000000       0.00000000       0.00000000          1
H        11.87761961       4.19849411       0.72696682         0.00000000       0.00000000       0.00000000          1
H        12.80975011       4.26972380       2.39279700         0.00000000       0.00000000       0.00000000          1
6
pbc=[F, F, F] list_num_par=6 frozen=false iter=29 energy=0.06854057 Lattice="15.00000000 0.00000000 0.00000000 0.00000000 15.00000000 0.00000000 0.00000000 0.00000000 15.00000000" energy_frozen_part=0.00000000 Properties=species:S:1:pos:R:3:velocities:R:3:Z:I:1
H         5.42404093       2.66343355       0.39724846         0.00000000       0.00000000       0.00000000          1
H        11.11874839       1.56513538       9.08669209         0.00000000       0.00000000       0.00000000          1
H        12.29592521       7.76556072      10.87354230         0.00000000       0.00000000       0.00000000          1
H        12.73357247       1.66983653      10.89495635         0.00000000       0.00000000       0.00000000          1
H        13.35767210       9.59550941       7.39201006         0.00000000       0.00000000       0.00000000          1
H        10.30962005      14.88735961       6.73595393         0.00000000       0.00000000       0.00000000          1
6
pbc=[F, F, F] list_num_par=6 frozen=false iter=39 energy=-0.00339538 Lattice="15.00000000 0.00000000 0.00000000 0.00000000 15.00000000 0.00000000 0.00000000 0.00000000 15.00000000" energy_frozen_part=0.00000000 Properties=species:S:1:pos:R:3:velocities:R:3:Z:I:1
H        13.86274291      12.79076026       8.64460381         0.00000000       0.00000000       0.00000000          1
H        11.40290998      14.45565823       1.73030699         0.00000000       0.00000000       0.00000000          1
H         2.94204884       6.87774028      14.23928019         0.00000000       0.00000000       0.00000000          1
H         4.37287986       1.23147537      12.15557096         0.00000000       0.00000000       0.00000000          1
H         7.43313625       5.99179879       7.96726677         0.00000000       0.00000000       0.00000000          1
H         2.61733040       3.19580044       1.94788456         0.00000000       0.00000000       0.00000000          1
6
pbc=[F, F, F] list_num_par=6 frozen=false iter=49 energy=-0.00588974 Lattice="15.00000000 0.00000000 0.00000000 0.00000000 15.00000000 0.00000000 0.00000000 0.00000000 15.00000000" energy_frozen_part=0.00000000 Properties=species:S:1:pos:R:3:velocities:R:3:Z:I:1
H        10.38186012      14.67376750       8.82442890         0.00000000       0.00000000       0.00000000          1
H         0.98640269       9.53734584       9.15252914         0.00000000       0.00000000       0.00000000          1
H         8.56356870       7.13501772       0.20215157         0.00000000       0.00000000       0.00000000          1
H        10.31679916       1.12305330      10.01437502         0.00000000       0.00000000       0.00000000          1
H         5.50112081       7.31973571      12.38626495         0.00000000       0.00000000       0.00000000          1
H        10.01785516       8.98068663       7.25590509         0.00000000       0.00000000       0.00000000          1
6
pbc=[F, F, F] list_num_par=6 frozen=false iter=59 energy=-0.00746617 Lattice="15.00000000 0.00000000 0.00000000 0.00000000 15.00000000 0.00000000 0.00000000 0.00000000 15.00000000" energy_frozen_part=0.00000000 Properties=species:S:1:pos:R:3:velocities:R:3:Z:I:1
H         9.61871873       1.08765716       0.81173827         0.00000000       0.00000000       0.00000000          1
H         0.88758977      13.09638008      10.04266093         0.00000000       0.00000000       0.00000000          1
H         0.78655713      10.79120631      14.43963642         0.00000000       0.00000000       0.00000000          1
H         5.69295216       4.82745729       6.05714626         0.00000000       0.00000000       0.00000000          1
H        11.86727369       8.02843932       0.64507598         0.00000000       0.00000000       0.00000000          1
H        13.06341484       5.52181817      11.48070618         0.00000000       0.00000000       0.00000000          1
6
pbc=[F, F, F] list_num_par=6 frozen=false iter=69 energy=-0.01143160 Lattice="15.00000000 0.00000000 0.00000000 0.00000000 15.00000000 0.00000000 0.00000000 0.00000000 15.00000000" energy_frozen_part=0.00000000 Properties=species:S:1:pos:R:3:velocities:R:3:Z:I:1
H         4.75742210       0.60538008      13.21506573         0.00000000       0.00000000       0.00000000          1
H         3.51278607       2.95904622       2.00930959         0.00000000       0.00000000       0.00000000          1
H         8.53332565      11.90568184       5.08790389         0.00000000       0.00000000       0.00000000          1
H         4.44497796      14.96861169      10.56761284         0.00000000       0.00000000       0.00000000          1
H        14.37963365       8.99072623       5.56741173         0.00000000       0.00000000       0.00000000          1
H        11.90357072      12.25741309       8.91537975         0.00000000       0.00000000       0.00000000          1
6
pbc=[F, F, F] list_num_par=6 frozen=false iter=79 energy=-0.01554279 Lattice="15.00000000 0.00000000 0.00000000 0.00000000 15.00000000 0.00000000 0.00000000 0.00000000 15.00000000" energy_frozen_part=0.00000000 Properties=species:S:1:pos:R:3:velocities:R:3:Z:I:1
H         1.40364564       9.81285410       4.09489750         0.00000000       0.00000000       0.00000000          1
H         1.23251595      13.47068070       9.60143562         0.00000000       0.00000000       0.00000000          1
H        14.65397933       2.26810865       0.05317885         0.00000000       0.00000000       0.00000000          1
H         5.13574900      12.58033856       6.42635106         0.00000000       0.00000000       0.00000000          1
H         8.82022040      12.30589653      10.76490736         0.00000000       0.00000000       0.00000000          1
H         2.47882990       7.96443690      13.37626663         0.00000000       0.00000000       0.00000000          1
6
pbc=[F, F, F] list_num_par=6 frozen=false iter=89 energy=-0.01998244 Lattice="15.00000000 0.00000000 0.00000000 0.00000000 15.00000000 0.00000000 0.00000000 0.00000000 15.00000000" energy_frozen_part=0.00000000 Properties=species:S:1:pos:R:3:velocities:R:3:Z:I:1
H         1.25651621       4.68087284      14.13189284         0.00000000       0.00000000       0.00000000          1
H         4.52118794       1.70439982      13.40313689         0.00000000       0.00000000       0.00000000          1
H         6.58975338      12.19374291       9.39030506         0.00000000       0.00000000       0.00000000          1
H        14.91603916       0.70509334      11.83194555         0.00000000       0.00000000       0.00000000          1
H         2.86601391       8.15327945       1.75253783         0.00000000       0.00000000       0.00000000          1
H         4.95460087      11.79642268      13.85401336         0.00000000       0.00000000       0.00000000          1
6
pbc=[F, F, F] list_num_par=6 frozen=false iter=99 energy=-0.02508294 Lattice="15.00000000 0.00000000 0.00000000 0.00000000 15.00000000 0.00000000 0.00000000 0.00000000 15.00000000" energy_frozen_part=0.00000000 Properties=species:S:1:pos:R:3:velocities:R:3:Z:I:1
H         6.17083910       0.91490961       8.95551901         0.00000000       0.00000000       0.00000000          1
H         9.91806468       7.38477660       6.70083410         0.00000000       0.00000000       0.00000000          1
H         5.57213003      13.63951118      14.03751573         0.00000000       0.00000000       0.00000000          1
H         1.73226640       4.55031741      10.77450162         0.00000000       0.00000000       0.00000000          1
H         8.03603955      13.16461405       8.67578761         0.00000000       0.00000000       0.00000000          1
H         5.00812358       3.64870384      13.38193399         0.00000000       0.00000000       0.00000000          1
6
pbc=[F, F, F] list_num_par=6 frozen=false iter=109 energy=-0.02969951 Lattice="15.00000000 0.00000000 0.00000000 0.00000000 15.00000000 0.00000000 0.00000000 0.00000000 15.00000000" energy_frozen_part=0.00000000 Properties=species:S:1:pos:R:3:velocities:R:3:Z:I:1
H         6.03689919      14.95698674       6.20357432         0.00000000       0.00000000       0.00000000          1
H         0.31704367       4.84481091      12.85522973         0.00000000       0.00000000       0.00000000          1
H         0.35247001      13.48397615      14.95516257         0.00000000       0.00000000       0.00000000          1
H        10.44151122      10.33846585      14.37576853         0.00000000       0.00000000       0.00000000          1
H         0.24034324       8.01334307      10.51182446         0.00000000       0.00000000       0.00000000          1
H         6.77375171       6.23343003      13.41127909         0.00000000       0.00000000       0.00000000          1
6
pbc=[F, F, F] list_num_par=6 frozen=false iter=119 energy=-0.03384395 Lattice="15.00000000 0.00000000 0.00000000 0.00000000 15.00000000 0.00000000 0.00000000 0.00000000 15.00000000" energy_frozen_part=0.00000000 Properties=species:S:1:pos:R:3:velocities:R:3:Z:I:1
H         5.90082812       4.76536343       9.09335814         0.00000000       0.00000000       0.00000000          1
H         1.00416475       5.74154421       6.51104719         0.00000000       0.00000000       0.00000000          1
H        13.76140194      10.42496934       9.59319671         0.00000000       0.00000000       0.00000000          1
H        11.03412449       6.29916845      14.83920730         0.00000000       0.00000000       0.00000000          1
H         1.03563536       7.40053028       0.80717131         0.00000000       0.00000000       0.00000000          1
H         4.80615298       8.18121700       0.55741645         0.00000000       0.00000000       0.00000000          1
6
pbc=[F, F, F] list_num_par=6 frozen=false iter=129 energy=-0.04010234 Lattice="15.00000000 0.00000000 0.00000000 0.00000000 15.00000000 0.00000000 0.00000000 0.00000000 15.00000000" energy_frozen_part=0.00000000 Properties=species:S:1:pos:R:3:velocities:R:3:Z:I:1
H         5.98728603       8.70512842      12.87735363         0.00000000       0.00000000       0.00000000          1
H         0.70278461       4.10241903       8.21363349         0.00000000       0.00000000       0.00000000          1
H         4.96105600       4.80121311      11.45415545         0.00000000       0.00000000       0.00000000          1
H         0.13758987       3.21833725       2.64943656         0.00000000       0.00000000       0.00000000          1
H         7.72692487       7.17000140       1.78763802         0.00000000       0.00000000       0.00000000          1
H         8.47839687       2.63321591      12.23767986         0.00000000       0.00000000       0.00000000          1
6
pbc=[F, F, F] list_num_par=6 frozen=false iter=139 energy=-0.04961780 Lattice="15.00000000 0.00000000 0.00000000 0.00000000 15.00000000 0.00000000 0.00000000 0.00000000 15.00000000" energy_frozen_part=0.00000000 Properties=species:S:1:pos:R:3:velocities:R:3:Z:I:1
H         6.25436640      13.10375989       1.52301008         0.00000000       0.00000000       0.00000000          1
H         8.79029258       7.74281474       0.35622513         0.00000000       0.00000000       0.00000000          1
H        12.04122133       0.21749052       6.31171924         0.00000000       0.00000000       0.00000000          1
H        14.83518551      12.47448778       9.10600748         0.00000000       0.00000000       0.00000000          1
H        10.61454324      13.32577544      11.69809013         0.00000000       0.00000000       0.00000000          1
H         9.93246845      11.61604289       0.83325571         0.00000000       0.00000000       0.00000000          1
6
pbc=[F, F, F] list_num_par=6 frozen=false iter=149 energy=-0.05955440 Lattice="15.00000000 0.00000000 0.00000000 0.00000000 15.00000000 0.00000000 0.00000000 0.00000000 15.00000000" energy_frozen_part=0.00000000 Properties=species:S:1:pos:R:3:velocities:R:3:Z:I:1
H         9.06967222       3.56312138       0.53713371         0.00000000       0.00000000       0.00000000          1
H         5.72224441       4.34565883       7.05060839         0.00000000       0.00000000       0.00000000          1
H         1.17577059       2.91810501      12.02860489         0.00000000       0.00000000       0.00000000          1
H         0.81383467       8.76567698       0.72029986         0.00000000       0.00000000       0.00000000          1
H         8.91749476       3.35450626       6.56441388         0.00000000       0.00000000       0.00000000          1
H         8.28198694      10.58591470       5.92841522         0.00000000       0.00000000       0.00000000          1
6
pbc=[F, F, F] list_num_par=6 frozen=false iter=159 energy=-0.06814296 Lattice="15.00000000 0.00000000 0.00000000 0.00000000 15.00000000 0.00000000 0.00000000 0.00000000 15.00000000" energy_frozen_part=0.00000000 Properties=species:S:1:pos:R:3:velocities:R:3:Z:I:1
H        10.11342984       5.19402463      12.24601428         0.00000000       0.00000000       0.00000000          1
H        13.73504056       9.59652473       5.50288606         0.00000000       0.00000000       0.00000000          1
H         3.93803832       6.28801967       5.37908553         0.00000000       0.00000000       0.00000000          1
H         0.23876779       7.66711787       9.33020013         0.00000000       0.00000000       0.00000000          1
H        12.78681908       4.94362965      14.10012338         0.00000000       0.00000000       0.00000000          1
H         4.76725896      11.71788883      14.36105026         0.00000000       0.00000000       0.00000000          1
6
pbc=[F, F, F] list_num_par=6 frozen=false iter=169 energy=-0.07302950 Lattice="15.00000000 0.00000000 0.00000000 0.00000000 15.00000000 0.00000000 0.00000000 0.00000000 15.00000000" energy_frozen_part=0.00000000 Properties=species:S:1:pos:R:3:velocities:R:3:Z:I:1
H         0.30766057      14.47656472      14.28008845         0.00000000       0.00000000       0.00000000          1
H         5.34688735       4.82792838       4.71266503         0.00000000       0.00000000       0.00000000          1
H        11.64602764       9.94134601      10.82421094         0.00000000       0.00000000       0.00000000          1
H         8.93113021      13.72144440       8.05117281         0.00000000       0.00000000       0.00000000          1
H        11.52520909       2.48908122       4.13919009         0.00000000       0.00000000       0.00000000          1
H         7.55959560       7.19263299       4.96663561         0.00000000       0.00000000       0.00000000          1
6
pbc=[F, F, F] list_num_par=6 frozen=false iter=179 energy=-0.08096144 Lattice="15.00000000 0.00000000 0.00000000 0.00000000 15.00000000 0.00000000 0.00000000 0.00000000 15.00000000" energy_frozen_part=0.00000000 Properties=species:S:1:pos:R:3:velocities:R:3:Z:I:1
H        10.65293618      11.49573026      14.77457209         0.00000000       0.00000000       0.00000000          1
H         0.88494850       2.17311677       8.47763639         0.00000000       0.00000000       0.00000000          1
H        11.36768578       8.42497153      11.66860862         0.00000000       0.00000000       0.00000000          1
H         1.99650907      10.30254369      10.34075561         0.00000000       0.00000000       0.00000000          1
H         3.20571328       3.30258735       6.50907352         0.00000000       0.00000000       0.00000000          1
H         8.58557431       7.82964661       5.80981343         0.00000000       0.00000000       0.00000000          1
6
pbc=[F, F, F] list_num_par=6 frozen=false iter=189 energy=-0.08541630 Lattice="15.00000000 0.00000000 0.00000000 0.00000000 15.00000000 0.00000000 0.00000000 0.00000000 15.00000000" energy_frozen_part=0.00000000 Properties=species:S:1:pos:R:3:velocities:R:3:Z:I:1
H        10.72961892      10.84984963      11.69897544         0.00000000       0.00000000       0.00000000          1
H         7.33409104       0.87727624       1.78197403         0.00000000       0.00000000       0.00000000          1
H        11.80562422      14.59616745      11.93268039         0.00000000       0.00000000       0.00000000          1
H        10.04849190      10.22858234       8.35747564         0.00000000       0.00000000       0.00000000          1
H         0.24688218       6.46424213       3.20904452         0.00000000       0.00000000       0.00000000          1
H         2.65593736       2.15283677       4.25430993         0.00000000       0.00000000       0.00000000          1
6
pbc=[F, F, F] list_num_par=6 frozen=false iter=199 energy=-0.08983642 Lattice="15.00000000 0.00000000 0.00000000 0.00000000 15.00000000 0.00000000 0.00000000 0.00000000 15.00000000" energy_frozen_part=0.00000000 Properties=species:S:1:pos:R:3:velocities:R:3:Z:I:1
H        13.30865138       2.24731696      12.83086224         0.00000000       0.00000000       0.00000000          1
H         8.45841722       1.97346943       3.53097145         0.00000000       0.00000000       0.00000000          1
H         8.24542265      10.30718827       8.92138971         0.00000000       0.00000000       0.00000000          1
H        13.56096067       3.31517541      10.39204283         0.00000000       0.00000000       0.00000000          1
H         1.36909626      10.24254212       8.32822527         0.00000000       0.00000000       0.00000000          1
H         0.41062425       7.07527408       0.10373951         0.00000000       0.00000000       0.00000000          1
6
pbc=[F, F, F] list_num_par=6 frozen=false iter=209 energy=-0.09444775 Lattice="15.00000000 0.00000000 0.00000000 0.00000000 15.00000000 0.00000000 0.00000000 0.00000000 15.00000000" energy_frozen_part=0.00000000 Properties=species:S:1:pos:R:3:velocities:R:3:Z:I:1
H         8.38367779       2.86143981      10.95021621         0.00000000       0.00000000       0.00000000          1
H         1.98672083       0.07797132      13.48333988         0.00000000       0.00000000       0.00000000          1
H         4.65902340       1.80578980      12.06647786         0.00000000       0.00000000       0.00000000          1
H         2.97142723       1.42292342       4.85366268         0.00000000       0.00000000       0.00000000          1
H         6.87294296       2.16332080       5.85693116         0.00000000       0.00000000       0.00000000          1
H        14.68163859      10.25464200      13.46218223         0.00000000       0.00000000       0.00000000          1
6
pbc=[F, F, F] list_num_par=6 frozen=false iter=219 energy=-0.09885973 Lattice="15.00000000 0.00000000 0.00000000 0.00000000 15.00000000 0.00000000 0.00000000 0.00000000 15.00000000" energy_frozen_part=0.00000000 Properties=species:S:1:pos:R:3:velocities:R:3:Z:I:1
H         0.76176556      14.90672600       6.42295542         0.00000000       0.00000000       0.00000000          1
H        12.65431637       2.26118352      13.86579816         0.00000000       0.00000000       0.00000000          1
H        14.76791881       9.49592345       8.50108650         0.00000000       0.00000000       0.00000000          1
H         8.83755329      12.57076430      13.50489694         0.00000000       0.00000000       0.00000000          1
H         1.90344569      13.32345652      11.56098592         0.00000000       0.00000000       0.00000000          1
H         0.49947396      11.20349408      13.03472157         0.00000000       0.00000000       0.00000000          1
6
pbc=[F, F, F] list_num_par=6 frozen=false iter=229 energy=-0.10035839 Lattice="15.00000000 0.00000000 0.00000000 0.00000000 15.00000000 0.00000000 0.00000000 0.00000000 15.00000000" energy_frozen_part=0.00000000 Properties=species:S:1:pos:R:3:velocities:R:3:Z:I:1
H         6.39140413       6.34857062       1.08821620         0.00000000       0.00000000       0.00000000          1
H         7.03531767      14.13799130      10.35081537         0.00000000       0.00000000       0.00000000          1
H        11.80511796       4.75234333      10.06758869         0.00000000       0.00000000       0.00000000          1
H         7.21040563       8.88516839       0.25321326         0.00000000       0.00000000       0.00000000          1
H        14.41234949      12.70449068       2.09879299         0.00000000       0.00000000       0.00000000          1
H         2.46508503       9.60421890      14.70040251         0.00000000       0.00000000       0.00000000          1
6
pbc=[F, F, F] list_num_par=6 frozen=false iter=239 energy=-0.10197391 Lattice="15.00000000 0.00000000 0.00000000 0.00000000 15.00000000 0.00000000 0.00000000 0.00000000 15.00000000" energy_frozen_part=0.00000000 Properties=species:S:1:pos:R:3:velocities:R:3:Z:I:1
H         4.22651684       6.98424976       2.51710358         0.00000000       0.00000000       0.00000000          1
H         4.34873314      14.11939827       9.56353281         0.00000000       0.00000000       0.00000000          1
H         6.92069029       1.39757716       5.87882133         0.00000000       0.00000000       0.00000000          1
H         7.36394712      13.26644320       1.75983693         0.00000000       0.00000000       0.00000000          1
H        14.17785035       6.49454538       3.95476954         0.00000000       0.00000000       0.00000000          1
H         4.45960255       0.55263804       4.74368665         0.00000000       0.00000000       0.00000000          1
6
pbc=[F, F, F] list_num_par=6 frozen=false iter=249 energy=-0.10399681 Lattice="15.00000000 0.00000000 0.00000000 0.00000000 15.00000000 0.00000000 0.00000000 0.00000000 15.00000000" energy_frozen_part=0.00000000 Properties=species:S:1:pos:R:3:velocities:R:3:Z:I:1
H         0.25269313       8.27309657       5.43824573         0.00000000       0.00000000       0.00000000          1
H         2.08706553       9.13931341       9.14975917         0.00000000       0.00000000       0.00000000          1
H         4.09065157      11.59360254       3.77215891         0.00000000       0.00000000       0.00000000          1
H        12.66306569       5.06319749       2.60156140         0.00000000       0.00000000       0.00000000          1
H        12.33758602       0.49309415       6.95492488         0.00000000       0.00000000       0.00000000          1
H         0.85965784       5.98793042       8.30745129         0.00000000       0.00000000       0.00000000          1
6
pbc=[F, F, F] list_num_par=6 frozen=false iter=259 energy=-0.10755569 Lattice="15.00000000 0.00000000 0.00000000 0.00000000 15.00000000 0.00000000 0.00000000 0.00000000 15.00000000" energy_frozen_part=0.00000000 Properties=species:S:1:pos:R:3:velocities:R:3:Z:I:1
H         4.71482578       0.48133054      10.04274118         0.00000000       0.00000000       0.00000000          1
H         1.67813190       9.00149363       1.48661275         0.00000000       0.00000000       0.00000000          1
H        13.92276247       5.12427149       0.42331745         0.00000000       0.00000000       0.00000000          1
H        12.91020589       4.43898934      10.16731626         0.00000000       0.00000000       0.00000000          1
H        14.24499930       6.94244422      10.53652105         0.00000000       0.00000000       0.00000000          1
H         8.62660961       6.45990713       8.60234520         0.00000000       0.00000000       0.00000000          1
6
pbc=[F, F, F] list_num_par=6 frozen=false iter=269 energy=-0.11257451 Lattice="15.00000000 0.00000000 0.00000000 0.00000000 15.00000000 0.00000000 0.00000000 0.00000000 15.00000000" energy_frozen_part=0.00000000 Properties=species:S:1:pos:R:3:velocities:R:3:Z:I:1
H         3.95305557       6.89595887       8.02831460         0.00000000       0.00000000       0.00000000          1
H         5.87720865       1.72092715       8.40125073         0.00000000       0.00000000       0.00000000          1
H         4.84794827       4.59139625       3.35824650         0.00000000       0.00000000       0.00000000          1
H         2.56863887       4.05674808       1.81065939         0.00000000       0.00000000       0.00000000          1
H        10.92039478       1.67752527       1.29670800         0.00000000       0.00000000       0.00000000          1
H         8.95305551      10.72515283       2.53742406         0.00000000       0.00000000       0.00000000          1
6
pbc=[F, F, F] list_num_par=6 frozen=false iter=279 energy=-0.11539382 Lattice="15.00000000 0.00000000 0.00000000 0.00000000 15.00000000 0.00000000 0.00000000 0.00000000 15.00000000" energy_frozen_part=0.00000000 Properties=species:S:1:pos:R:3:velocities:R:3:Z:I:1
H        14.41383163      10.94346175       4.17129002         0.00000000       0.00000000       0.00000000          1
H        11.38441931       4.70675514       6.28679520         0.00000000       0.00000000       0.00000000          1
H        13.02907707       7.00784751      12.42901795         0.00000000       0.00000000       0.00000000          1
H         4.56034401      14.40312388       4.90897921         0.00000000       0.00000000       0.00000000          1
H        13.71532176      11.83427422       6.80458512         0.00000000       0.00000000       0.00000000          1
H        14.82887351       3.10580260      11.57993099         0.00000000       0.00000000       0.00000000          1
6
pbc=[F, F, F] list_num_par=6 frozen=false iter=289 energy=-0.12070926 Lattice="15.00000000 0.00000000 0.00000000 0.00000000 15.00000000 0.00000000 0.00000000 0.00000000 15.00000000" energy_frozen_part=0.00000000 Properties=species:S:1:pos:R:3:velocities:R:3:Z:I:1
H         1.90746729       6.21623967      12.65457906         0.00000000       0.00000000       0.00000000          1
H        11.30378840       3.99189375      11.51151598         0.00000000       0.00000000       0.00000000          1
H         0.51303433       7.74619859       0.96992840         0.00000000       0.00000000       0.00000000          1
H        12.14822213       7.29911069       9.53425896         0.00000000       0.00000000       0.00000000          1
H         0.07083656       5.14820496      10.62610185         0.00000000       0.00000000       0.00000000          1
H         2.32761335       2.44861891       2.74530912         0.00000000       0.00000000       0.00000000          1
6
pbc=[F, F, F] list_num_par=6 frozen=false iter=299 energy=-0.12335421 Lattice="15.00000000 0.00000000 0.00000000 0.00000000 15.00000000 0.00000000 0.00000000 0.00000000 15.00000000" energy_frozen_part=0.00000000 Properties=species:S:1:pos:R:3:velocities:R:3:Z:I:1
H         3.85536040       7.57917347       1.36225348         0.00000000       0.00000000       0.00000000          1
H         9.82438542       7.24454775       7.38850002         0.00000000       0.00000000       0.00000000          1
H         9.57210480       1.50728561      11.14914369         0.00000000       0.00000000       0.00000000          1
H        14.33305458      13.21557819       0.16175088         0.00000000       0.00000000       0.00000000          1
H         9.72072191       3.96857414       2.58222565         0.00000000       0.00000000       0.00000000          1
H         7.35969308       5.52640738       2.19045711         0.00000000       0.00000000       0.00000000          1
6
pbc=[F, F, F] list_num_par=6 frozen=false iter=309 energy=-0.12652989 Lattice="15.00000000 0.00000000 0.00000000 0.00000000 15.00000000 0.00000000 0.00000000 0.00000000 15.00000000" energy_frozen_part=0.00000000 Properties=species:S:1:pos:R:3:velocities:R:3:Z:I:1
H         8.80423685      11.01867928       7.80372926         0.00000000       0.00000000       0.00000000          1
H        13.86079984       2.35362205       9.42963088         0.00000000       0.00000000       0.00000000          1