6
pbc=[F, F, F] list_num_par=6 energy=1.92767058 iter=9 frozen=false Lattice="15.00000000 0.00000000 0.00000000 0.00000000 15.00000000 0.00000000 0.00000000 0.00000000 15.00000000" energy_frozen_part=0.00000000 Properties=species:S:1:pos:R:3:velocities:R:3:Z:I:1
H        11.80430602       3.67078778      14.93358569         0.00000000       0.00000000       0.00000000          1
H        13.23371760       1.63746408       6.62784377         0.00000000       0.00000000       0.00000000          1
H         3.50681493       9.21847974       1.34919248         0.00000000       0.00000000       0.00000000          1
H         4.63514389      10.09596384       2.90316756         0.00000000       0.00000000       0.00000000          1
H        14.26310341       0.14869165      12.03674552         0.00000000       0.00000000       0.00000000          1
H         3.69926383       2.21527400       9.64245969         0.00000000       0.00000000       0.00000000          1
6
pbc=[F, F, F] list_num_par=6 energy=-0.00255061 iter=19 frozen=false Lattice="15.00000000 0.00000000 0.00000000 0.00000000 15.00000000 0.00000000 0.00000000 0.00000000 15.00000000" energy_frozen_part=0.00000000 Properties=species:S:1:pos:R:3:velocities:R:3:Z:I:1
H        12.36855134      10.96571413       6.55812116         0.00000000       0.00000000       0.00000000          1
H         6.27255865       7.91924934       1.19154371         0.00000000       0.00000000       0.00000000          1
H        13.17682489       2.69957887       8.06293352         0.00000000       0.00000000       0.00000000          1
H        14.27295626       8.17577300       1.10211125         0.00000000       0.00000000       0.00000000          1
H         4.32023996       6.79401192      14.15229525         0.00000000       0.00000000       0.00000000          1
H         3.60830605      13.39029961      11.26672845         0.00000000       0.00000000       0.00000000          1
6
pbc=[F, F, F] list_num_par=6 energy=-0.00691538 iter=29 frozen=false Lattice="15.00000000 0.00000000 0.00000000 0.00000000 15.00000000 0.00000000 0.00000000 0.00000000 15.00000000" energy_frozen_part=0.00000000 Properties=species:S:1:pos:R:3:velocities:R:3:Z:I:1
H         8.55645971       0.44803335       3.83997040         0.00000000       0.00000000       0.00000000          1
H         3.93258972       6.24709297       2.40278593         0.00000000       0.00000000       0.00000000          1
H         8.47604827       5.35828152      11.18729631         0.00000000       0.00000000       0.00000000          1
H         7.84831248      10.89687044       2.57069570         0.00000000       0.00000000       0.00000000          1
H         3.04083538       0.57944255       1.40001161         0.00000000       0.00000000       0.00000000          1
H         1.86540864       8.32975116      14.81470597         0.00000000       0.00000000       0.00000000          1
6
pbc=[F, F, F] list_num_par=6 energy=-0.01143414 iter=39 frozen=false Lattice="15.00000000 0.00000000 0.00000000 0.00000000 15.00000000 0.00000000 0.00000000 0.00000000 15.00000000" energy_frozen_part=0.00000000 Properties=species:S:1:pos:R:3:velocities:R:3:Z:I:1
H        11.17733950       9.79061462       0.34761326         0.00000000       0.00000000       0.00000000          1
H         2.90033221       0.14079067       7.21932531         0.00000000       0.00000000       0.00000000          1
H         4.69642436       9.87886688       3.60833183         0.00000000       0.00000000       0.00000000          1
H         8.13036578       5.24654011       7.96810177         0.00000000       0.00000000       0.00000000          1
H        11.68304060       1.42121080      14.71342772         0.00000000       0.00000000       0.00000000          1
H         7.06016703       1.56687211      11.44573935         0.00000000       0.00000000       0.00000000          1
6
pbc=[F, F, F] list_num_par=6 energy=-0.01469162 iter=49 frozen=false Lattice="15.00000000 0.00000000 0.00000000 0.00000000 15.00000000 0.00000000 0.00000000 0.00000000 15.00000000" energy_frozen_part=0.00000000 Properties=species:S:1:pos:R:3:velocities:R:3:Z:I:1
H         1.11076039       6.42871319      13.47690443         0.00000000       0.00000000       0.00000000          1
H         5.91170285       7.36516258      11.86740400         0.00000000       0.00000000       0.00000000          1
H        11.00168988       0.89703422       0.31497991         0.00000000       0.00000000       0.00000000          1
H         3.10029690       5.52297016       0.42307882         0.00000000       0.00000000       0.00000000          1
H         7.53699537       8.22661506       7.58842968         0.00000000       0.00000000       0.00000000          1
H        14.47870691      13.56165869       8.73515583         0.00000000       0.00000000       0.00000000          1
6
pbc=[F, F, F] list_num_par=6 energy=-0.02090313 iter=59 frozen=false Lattice="15.00000000 0.00000000 0.00000000 0.00000000 15.00000000 0.00000000 0.00000000 0.00000000 15.00000000" energy_frozen_part=0.00000000 Properties=species:S:1:pos:R:3:velocities:R:3:Z:I:1
H         4.44190338       0.49490841       0.02404302         0.00000000       0.00000000       0.00000000          1
H         6.99843001      10.06856760       1.68974729         0.00000000       0.00000000       0.00000000          1
H         7.25545046      13.87905611       5.83565770         0.00000000       0.00000000       0.00000000          1
H        10.92050447       4.84008509       5.11896868         0.00000000       0.00000000       0.00000000          1
H         5.16419813       8.71821035       9.95668066         0.00000000       0.00000000       0.00000000          1
H        10.90237350      11.29433022       5.44325120         0.00000000       0.00000000       0.00000000          1
6
pbc=[F, F, F] list_num_par=6 energy=-0.02515866 iter=69 frozen=false Lattice="15.00000000 0.00000000 0.00000000 0.00000000 15.00000000 0.00000000 0.00000000 0.00000000 15.00000000" energy_frozen_part=0.00000000 Properties=species:S:1:pos:R:3:velocities:R:3:Z:I:1
H         1.63907516       5.75537511       1.96752662         0.00000000       0.00000000       0.00000000          1
H         2.57358299       9.93646923      14.00113873         0.00000000       0.00000000       0.00000000          1
H         5.49724792       8.29312337       0.97925232         0.00000000       0.00000000       0.00000000          1
H         5.44531252       9.08719618       6.27096794         0.00000000       0.00000000       0.00000000          1
H         9.73734028       3.29399203       2.91008976         0.00000000       0.00000000       0.00000000          1
H        10.74282481       7.95317924       4.48316363         0.00000000       0.00000000       0.00000000          1
6
pbc=[F, F, F] list_num_par=6 energy=-0.03232633 iter=79 frozen=false Lattice="15.00000000 0.00000000 0.00000000 0.00000000 15.00000000 0.00000000 0.00000000 0.00000000 15.00000000" energy_frozen_part=0.00000000 Properties=species:S:1:pos:R:3:velocities:R:3:Z:I:1
H         6.82200924       4.31636566      14.92654692         0.00000000       0.00000000       0.00000000          1
H         7.21174571      14.63259444       4.34597595         0.00000000       0.00000000       0.00000000          1
H         4.62280060      10.59919263       2.41071968         0.00000000       0.00000000       0.00000000          1
H         6.12444599       1.05675445      12.30627896         0.00000000       0.00000000       0.00000000          1
H        13.14102438       0.25251390       9.98341639         0.00000000       0.00000000       0.00000000          1
H         1.91569342      10.32791395       6.10487142         0.00000000       0.00000000       0.00000000          1
6
pbc=[F, F, F] list_num_par=6 energy=-0.03812801 iter=89 frozen=false Lattice="15.00000000 0.00000000 0.00000000 0.00000000 15.00000000 0.00000000 0.00000000 0.00000000 15.00000000" energy_frozen_part=0.00000000 Properties=species:S:1:pos:R:3:velocities:R:3:Z:I:1
H        12.06347190       7.20782847       6.85803939         0.00000000       0.00000000       0.00000000          1
H         7.95525625      13.88087614       8.58556442         0.00000000       0.00000000       0.00000000          1
H         4.27785082       9.29497393       9.46353762         0.00000000       0.00000000       0.00000000          1
H         0.99023991       2.66163677       8.40686812         0.00000000       0.00000000       0.00000000          1
H         4.93224289       3.38702085      12.65125606         0.00000000       0.00000000       0.00000000          1
H        13.87999546       6.93740149      10.13169701         0.00000000       0.00000000       0.00000000          1
6
pbc=[F, F, F] list_num_par=6 energy=-0.04411925 iter=99 frozen=false Lattice="15.00000000 0.00000000 0.00000000 0.00000000 15.00000000 0.00000000 0.00000000 0.00000000 15.00000000" energy_frozen_part=0.00000000 Properties=species:S:1:pos:R:3:velocities:R:3:Z:I:1
H        11.95446200      14.38927725       7.44586691         0.00000000       0.00000000       0.00000000          1
H         7.12217888      12.61868993       9.56661983         0.00000000       0.00000000       0.00000000          1
H         6.15343937       9.14485342      10.23933833         0.00000000       0.00000000       0.00000000          1
H         1.42401801      12.84459981      14.52628988         0.00000000       0.00000000       0.00000000          1
H        13.76064527      13.66501744      12.61717529         0.00000000       0.00000000       0.00000000          1
H        14.94057990       0.08986345       1.57606574         0.00000000       0.00000000       0.00000000          1
6
pbc=[F, F, F] list_num_par=6 energy=-0.04682060 iter=109 frozen=false Lattice="15.00000000 0.00000000 0.00000000 0.00000000 15.00000000 0.00000000 0.00000000 0.00000000 15.00000000" energy_frozen_part=0.00000000 Properties=species:S:1:pos:R:3:velocities:R:3:Z:I:1
H        10.86423901      11.32399079       3.37108341         0.00000000       0.00000000       0.00000000          1
H         4.86860113       7.31868839       6.14953483         0.00000000       0.00000000       0.00000000          1
H        14.38804522       0.61028690      12.66165489         0.00000000       0.00000000       0.00000000          1
H         1.84561107      12.73342153      14.96578286         0.00000000       0.00000000       0.00000000          1
H         1.85802485      14.80707384      10.98869228         0.00000000       0.00000000       0.00000000          1
H        10.09831949      14.93341479       3.37710869         0.00000000       0.00000000       0.00000000          1
6
pbc=[F, F, F] list_num_par=6 energy=-0.05243493 iter=119 frozen=false Lattice="15.00000000 0.00000000 0.00000000 0.00000000 15.00000000 0.00000000 0.00000000 0.00000000 15.00000000" energy_frozen_part=0.00000000 Properties=species:S:1:pos:R:3:velocities:R:3:Z:I:1
H         6.06753765      12.94663780       9.50967922         0.00000000       0.00000000       0.00000000          1
H         6.68665747       3.09314438       9.15338569         0.00000000       0.00000000       0.00000000          1
H        11.10086150       1.97657706      13.23741159         0.00000000       0.00000000       0.00000000          1
H         9.75765035       3.15385622       7.11751192         0.00000000       0.00000000       0.00000000          1
H         9.25638396       6.88986579      11.00851162         0.00000000       0.00000000       0.00000000          1
H         1.63749390       6.78262452       4.81661731         0.00000000       0.00000000       0.00000000          1
6
pbc=[F, F, F] list_num_par=6 energy=-0.05788156 iter=129 frozen=false Lattice="15.00000000 0.00000000 0.00000000 0.00000000 15.00000000 0.00000000 0.00000000 0.00000000 15.00000000" energy_frozen_part=0.00000000 Properties=species:S:1:pos:R:3:velocities:R:3:Z:I:1
H         4.84108530       7.77188270       1.84384398         0.00000000       0.00000000       0.00000000          1
H        10.74095445      13.55900043       7.80372479         0.00000000       0.00000000       0.00000000          1
H         2.42731471      10.01419521      10.04977746         0.00000000       0.00000000       0.00000000          1
H         2.60233928       9.98453519       0.48373914         0.00000000       0.00000000       0.00000000          1
H         8.95816242      10.02656247      10.99464755         0.00000000       0.00000000       0.00000000          1
H        12.40319225       3.42479002       6.99328599         0.00000000       0.00000000       0.00000000          1
6
pbc=[F, F, F] list_num_par=6 energy=-0.06365802 iter=139 frozen=false Lattice="15.00000000 0.00000000 0.00000000 0.00000000 15.00000000 0.00000000 0.00000000 0.00000000 15.00000000" energy_frozen_part=0.00000000 Properties=species:S:1:pos:R:3:velocities:R:3:Z:I:1
H        10.95374828       1.43075917       1.79223449         0.00000000       0.00000000       0.00000000          1
H        14.01735509       2.49553754       2.45327982         0.00000000       0.00000000       0.00000000          1
H         7.53032346       2.69652557      14.13226163         0.00000000       0.00000000       0.00000000          1
H         4.10579900      11.54464983       1.90881581         0.00000000       0.00000000       0.00000000          1
H         5.45733706       0.35929801       2.54536159         0.00000000       0.00000000       0.00000000          1
H         0.73844355       3.45882290       9.12488315         0.00000000       0.00000000       0.00000000          1
6
pbc=[F, F, F] list_num_par=6 energy=-0.06967805 iter=149 frozen=false Lattice="15.00000000 0.00000000 0.00000000 0.00000000 15.00000000 0.00000000 0.00000000 0.00000000 15.00000000" energy_frozen_part=0.00000000 Properties=species:S:1:pos:R:3:velocities:R:3:Z:I:1
H        14.24751488       8.54630717      12.77932354         0.00000000       0.00000000       0.00000000          1
H         4.40970121       7.88900224      11.70273195         0.00000000       0.00000000       0.00000000          1
H         1.11197157       8.07845820      11.36298876         0.00000000       0.00000000       0.00000000          1
H         6.64694446       0.08566648       3.98666286         0.00000000       0.00000000       0.00000000          1
H         1.50747009      14.43493415       5.59150965         0.00000000       0.00000000       0.00000000          1
H         8.28348781       3.95495462       5.90234515         0.00000000       0.00000000       0.00000000          1
6
pbc=[F, F, F] list_num_par=6 energy=-0.07404968 iter=159 frozen=false Lattice="15.00000000 0.00000000 0.00000000 0.00000000 15.00000000 0.00000000 0.00000000 0.00000000 15.00000000" energy_frozen_part=0.00000000 Properties=species:S:1:pos:R:3:velocities:R:3:Z:I:1
H        10.48157164      12.52258166      13.16342505         0.00000000       0.00000000       0.00000000          1
H         5.98087145       3.03937512      14.26951750         0.00000000       0.00000000       0.00000000          1
H         2.94325931       3.45198555      12.33331375         0.00000000       0.00000000       0.00000000          1
H         7.63808215       0.52834358       3.53926484         0.00000000       0.00000000       0.00000000          1
H         6.81389823       6.67585890       7.20532445         0.00000000       0.00000000       0.00000000          1
H         6.45896827       0.34508303       7.09889324         0.00000000       0.00000000       0.00000000          1
6
pbc=[F, F, F] list_num_par=6 energy=-0.07612384 iter=169 frozen=false Lattice="15.00000000 0.00000000 0.00000000 0.00000000 15.00000000 0.00000000 0.00000000 0.00000000 15.00000000" energy_frozen_part=0.00000000 Properties=species:S:1:pos:R:3:velocities:R:3:Z:I:1
H        13.58241841       9.01961785       0.12728795         0.00000000       0.00000000       0.00000000          1
H        10.16608229       7.72222054       3.75473448         0.00000000       0.00000000       0.00000000          1
H        12.26176045       3.74972030       6.27245862         0.00000000       0.00000000       0.00000000          1
H         8.10475865      14.67146911       5.93430377         0.00000000       0.00000000       0.00000000          1
H        14.23670515       8.09394255      13.70439341         0.00000000       0.00000000       0.00000000          1
H        11.16327612       6.21819188       8.26110021         0.00000000       0.00000000       0.00000000          1
6
pbc=[F, F, F] list_num_par=6 energy=-0.07982988 iter=179 frozen=false Lattice="15.00000000 0.00000000 0.00000000 0.00000000 15.00000000 0.00000000 0.00000000 0.00000000 15.00000000" energy_frozen_part=0.00000000 Properties=species:S:1:pos:R:3:velocities:R:3:Z:I:1
H        12.97126712      11.00640541      14.41759567         0.00000000       0.00000000       0.00000000          1
H         6.20747286      11.29613392      12.35103845         0.00000000       0.00000000       0.00000000          1
H         2.04708888       3.18457144      11.83172386         0.00000000       0.00000000       0.00000000          1
H         7.42805569       2.03651901       3.56335916         0.00000000       0.00000000       0.00000000          1
H         4.64451870       6.94525311       8.66432310         0.00000000       0.00000000       0.00000000          1
H         5.90327477       2.32074160       6.38752326         0.00000000       0.00000000       0.00000000          1
6
pbc=[F, F, F] list_num_par=6 energy=-0.08365026 iter=189 frozen=false Lattice="15.00000000 0.00000000 0.00000000 0.00000000 15.00000000 0.00000000 0.00000000 0.00000000 15.00000000" energy_frozen_part=0.00000000 Properties=species:S:1:pos:R:3:velocities:R:3:Z:I:1
H        14.62177853      10.21801617       5.58551115         0.00000000       0.00000000       0.00000000          1
H         4.95389898       0.81306752       7.65825847         0.00000000       0.00000000       0.00000000          1
H        14.05535719       3.28594177       8.42895072         0.00000000       0.00000000       0.00000000          1
H         0.29445303      14.43008108      10.65897031         0.00000000       0.00000000       0.00000000          1
H         0.17334309      13.82879983       7.53368046         0.00000000       0.00000000       0.00000000          1
H        13.49249618      13.26687632       2.50042158         0.00000000       0.00000000       0.00000000          1
6
pbc=[F, F, F] list_num_par=6 energy=-0.08893215 iter=199 frozen=false Lattice="15.00000000 0.00000000 0.00000000 0.00000000 15.00000000 0.00000000 0.00000000 0.00000000 15.00000000" energy_frozen_part=0.00000000 Properties=species:S:1:pos:R:3:velocities:R:3:Z:I:1
H        10.35427852      14.62793428       4.85212490         0.00000000       0.00000000       0.00000000          1
H         7.64141065       5.90449802       5.03042822         0.00000000       0.00000000       0.00000000          1
H         0.45445729      13.86737507       0.09872345         0.00000000       0.00000000       0.00000000          1
H        14.06291353       0.51976896      10.40974345         0.00000000       0.00000000       0.00000000          1
H         2.74104304      13.48199666       2.30770042         0.00000000       0.00000000       0.00000000          1
H         9.18329348       6.64908791       1.26691093         0.00000000       0.00000000       0.00000000          1
6
pbc=[F, F, F] list_num_par=6 energy=-0.09428249 iter=209 frozen=false Lattice="15.00000000 0.00000000 0.00000000 0.00000000 15.00000000 0.00000000 0.00000000 0.00000000 15.00000000" energy_frozen_part=0.00000000 Properties=species:S:1:pos:R:3:velocities:R:3:Z:I:1
H         1.70274142      10.10863847      14.51697207         0.00000000       0.00000000       0.00000000          1
H         9.09980971       0.52779238      12.75217825         0.00000000       0.00000000       0.00000000          1
H         9.79336396       5.06573074      14.71019493         0.00000000       0.00000000       0.00000000          1
H         3.79261635       7.45223666       4.78092390         0.00000000       0.00000000       0.00000000          1
H         0.85549139       3.38077571       1.20493862         0.00000000       0.00000000       0.00000000          1
H         6.39647717       6.93190225       3.30736318         0.00000000       0.00000000       0.00000000          1
6
pbc=[F, F, F] list_num_par=6 energy=-0.09824586 iter=219 frozen=false Lattice="15.00000000 0.00000000 0.00000000 0.00000000 15.00000000 0.00000000 0.00000000 0.00000000 15.00000000" energy_frozen_part=0.00000000 Properties=species:S:1:pos:R:3:velocities:R:3:Z:I:1
H         0.00911836      11.27165878       6.41408163         0.00000000       0.00000000       0.00000000          1
H        12.29172592      13.00230244       6.54217109         0.00000000       0.00000000       0.00000000          1
H         4.96626793       4.87491662       9.06098334         0.00000000       0.00000000       0.00000000          1
H        11.17721995       5.27845901       1.05250303         0.00000000       0.00000000       0.00000000          1
H        11.04654159       6.82313485       6.08991264         0.00000000       0.00000000       0.00000000          1
H         8.20247885       6.16110000       7.70260707         0.00000000       0.00000000       0.00000000          1
6
pbc=[F, F, F] list_num_par=6 energy=-0.10074690 iter=229 frozen=false Lattice="15.00000000 0.00000000 0.00000000 0.00000000 15.00000000 0.00000000 0.00000000 0.00000000 15.00000000" energy_frozen_part=0.00000000 Properties=species:S:1:pos:R:3:velocities:R:3:Z:I:1
H        12.35335021      10.37315370       2.36469794         0.00000000       0.00000000       0.00000000          1
H        11.65246908       4.01875934       7.34161705         0.00000000       0.00000000       0.00000000          1
H         8.33470424       0.61352140      14.01095802         0.00000000       0.00000000       0.00000000          1
H         4.40570331       7.17363578      10.50573503         0.00000000       0.00000000       0.00000000          1
H        14.03077287       3.96364507       5.97588743         0.00000000       0.00000000       0.00000000          1
H        10.21100475       2.21057583       0.66450479         0.00000000       0.00000000       0.00000000          1
6
pbc=[F, F, F] list_num_par=6 energy=-0.10152324 iter=239 frozen=false Lattice="15.00000000 0.00000000 0.00000000 0.00000000 15.00000000 0.00000000 0.00000000 0.00000000 15.00000000" energy_frozen_part=0.00000000 Properties=species:S:1:pos:R:3:velocities:R:3:Z:I:1
H         2.47959822      12.49764309       7.80263237         0.00000000       0.00000000       0.00000000          1
H        14.93362463       6.56298628       3.49298367         0.00000000       0.00000000       0.00000000          1
H         4.60137738       4.76523765       5.87052396         0.00000000       0.00000000       0.00000000          1
H         8.52950391       7.75460462       0.51806028         0.00000000       0.00000000       0.00000000          1
H        12.28421717       4.84370513       4.28333815         0.00000000       0.00000000       0.00000000          1
H         5.87785348       5.52706497       9.30517434         0.00000000       0.00000000       0.00000000          1
6
pbc=[F, F, F] list_num_par=6 energy=-0.10337937 iter=249 frozen=false Lattice="15.00000000 0.00000000 0.00000000 0.00000000 15.00000000 0.00000000 0.00000000 0.00000000 15.00000000" energy_frozen_part=0.00000000 Properties=species:S:1:pos:R:3:velocities:R:3:Z:I:1
H        10.69089716       2.00621147       6.39640390         0.00000000       0.00000000       0.00000000          1
H         8.25162388       2.37075422       8.09787466         0.00000000       0.00000000       0.00000000          1
H        12.55654081       1.09184932      13.69482367         0.00000000       0.00000000       0.00000000          1
H         5.78650973      12.28344620       8.99124646         0.00000000       0.00000000       0.00000000          1
H         3.78233969      11.92565676       5.09837435         0.00000000       0.00000000       0.00000000          1
H        14.72668257      12.20272551       1.26494597         0.00000000       0.00000000       0.00000000          1
6
pbc=[F, F, F] list_num_par=6 energy=-0.10839328 iter=259 frozen=false Lattice="15.00000000 0.00000000 0.00000000 0.00000000 15.00000000 0.00000000 0.00000000 0.00000000 15.00000000" energy_frozen_part=0.00000000 Properties=species:S:1:pos:R:3:velocities:R:3:Z:I:1
H        13.20035541       6.91122822      11.14364093         0.00000000       0.00000000       0.00000000          1
H         1.14212274       0.57505207       4.24921700         0.00000000       0.00000000       0.00000000          1
H         3.78173693       4.77005067       9.24814573         0.00000000       0.00000000       0.00000000          1
H         6.21235762       2.72204409       4.54345073         0.00000000       0.00000000       0.00000000          1
H         1.02668891       9.68749260       1.21561113         0.00000000       0.00000000       0.00000000          1
H         6.51670982       5.00881254       2.89227131         0.00000000       0.00000000       0.00000000          1
6
pbc=[F, F, F] list_num_par=6 energy=-0.11096310 iter=269 frozen=false Lattice="15.00000000 0.00000000 0.00000000 0.00000000 15.00000000 0.00000000 0.00000000 0.00000000 15.00000000" energy_frozen_part=0.00000000 Properties=species:S:1:pos:R:3:velocities:R:3:Z:I:1
H        10.67460028       8.50619755      13.91175872         0.00000000       0.00000000       0.00000000          1
H        10.02382863       1.42993218      10.68203848         0.00000000       0.00000000       0.00000000          1
H         4.98703955       1.48630616       9.34287374         0.00000000       0.00000000       0.00000000          1
H        10.65016269       4.28564569       6.43268313         0.00000000       0.00000000       0.00000000          1
H        11.58573591       6.70587622       7.72722821         0.00000000       0.00000000       0.00000000          1
H        14.60159726      13.95019104       7.84306212         0.00000000       0.00000000       0.00000000          1
6
pbc=[F, F, F] list_num_par=6 energy=-0.11296426 iter=279 frozen=false Lattice="15.00000000 0.00000000 0.00000000 0.00000000 15.00000000 0.00000000 0.00000000 0.00000000 15.00000000" energy_frozen_part=0.00000000 Properties=species:S:1:pos:R:3:velocities:R:3:Z:I:1
H        10.05746750      14.94632276       1.99341518         0.00000000       0.00000000       0.00000000          1
H         3.16753929       8.83522349       6.27421103         0.00000000       0.00000000       0.00000000          1
H         4.09796015       4.21413373       6.86053675         0.00000000       0.00000000       0.00000000          1
H        11.10766957       7.77243678       7.95676199         0.00000000       0.00000000       0.00000000          1
H        13.76656215       5.29741706       8.11502114         0.00000000       0.00000000       0.00000000          1
H        12.04982413       9.98070698      10.19650431         0.00000000       0.00000000       0.00000000          1
6
pbc=[F, F, F] list_num_par=6 energy=-0.11520210 iter=289 frozen=false Lattice="15.00000000 0.00000000 0.00000000 0.00000000 15.00000000 0.00000000 0.00000000 0.00000000 15.00000000" energy_frozen_part=0.00000000 Properties=species:S:1:pos:R:3:velocities:R:3:Z:I:1
H         3.88851373       9.44703648       4.26857848         0.00000000       0.00000000       0.00000000          1
H         1.38778505      11.82262220      12.70064197         0.00000000       0.00000000       0.00000000          1
H        11.59359649       7.28194046       4.76035458         0.00000000       0.00000000       0.00000000          1
H        14.45387942       5.82351913       3.72284329         0.00000000       0.00000000       0.00000000          1
H         1.54709710       0.12096792      13.67517948         0.00000000       0.00000000       0.00000000          1
H        12.44378699       3.14230780       4.86049781         0.00000000       0.00000000       0.00000000          1
6
pbc=[F, F, F] list_num_par=6 energy=-0.11931097 iter=299 frozen=false Lattice="15.00000000 0.00000000 0.00000000 0.00000000 15.00000000 0.00000000 0.00000000 0.00000000 15.00000000" energy_frozen_part=0.00000000 Properties=species:S:1:pos:R:3:velocities:R:3:Z:I:1
H         0.13463333      10.58421132       5.29229644         0.00000000       0.00000000       0.00000000          1
H         8.00028852       0.75778927       2.74903873         0.00000000       0.00000000       0.00000000          1
H         9.82973711       0.99000452      13.89428449         0.00000000       0.00000000       0.00000000          1
H         5.63346913       7.22981882       2.23822221         0.00000000       0.00000000       0.00000000          1
H         9.42838432       6.99804839       4.18970132         0.00000000       0.00000000       0.00000000          1
H         2.24587954       9.78861638       6.93834666         0.00000000       0.00000000       0.00000000          1
6
pbc=[F, F, F] list_num_par=6 energy=-0.12382800 iter=309 frozen=false Lattice="15.00000000 0.00000000 0.00000000 0.00000000 15.00000000 0.00000000 0.00000000 0.00000000 15.00000000" energy_frozen_part=0.00000000 Properties=species:S:1:pos:R:3:velocities:R:3:Z:I:1
H        14.08568408       5.62651376       6.46128590         0.00000000       0.00000000       0.00000000          1
H        11.26868822      10.35031914      10.02351467         0.00000000       0.00000000       0.00000000          1