6
pbc=[F, F, F] list_num_par=6 frozen=false iter=20000 energy=-1.26974174 Lattice="15.00000000 0.00000000 0.00000000 0.00000000 15.00000000 0.00000000 0.00000000 0.00000000 15.00000000" energy_frozen_part=0.00000000 Properties=species:S:1:pos:R:3:velocities:R:3:Z:I:1
H         6.98587504       7.28157563       3.94628864         0.00000000       0.00000000       0.00000000          1
H         8.38571202       6.23923690       6.12763163         0.00000000       0.00000000       0.00000000          1
H         5.81786729       9.19692924       5.61105432         0.00000000       0.00000000       0.00000000          1
H         7.21770340       8.15459265       7.79240283         0.00000000       0.00000000       0.00000000          1
H         5.60503459       6.48332988       6.23983541         0.00000000       0.00000000       0.00000000          1
H         8.59853592       8.95284259       5.49885813         0.00000000       0.00000000       0.00000000          1
6
pbc=[F, F, F] list_num_par=6 frozen=false iter=20000 energy=-1.26974174 Lattice="15.00000000 0.00000000 0.00000000 0.00000000 15.00000000 0.00000000 0.00000000 0.00000000 15.00000000" energy_frozen_part=0.00000000 Properties=species:S:1:pos:R:3:velocities:R:3:Z:I:1
H         6.48454420       6.65058645       4.20066552         0.00000000       0.00000000       0.00000000          1
H         7.76382426       6.97295125       6.66313932         0.00000000       0.00000000       0.00000000          1
H         6.14197558       9.41698708       4.01646577         0.00000000       0.00000000       0.00000000          1
H         7.42126787       9.73936227       6.47894288         0.00000000       0.00000000       0.00000000          1
H         5.21360001       8.04110238       6.26354082         0.00000000       0.00000000       0.00000000          1
H         8.69221208       8.34884664       4.41607636         0.00000000       0.00000000       0.00000000          1
6
pbc=[F, F, F] list_num_par=6 frozen=false iter=20000 energy=-1.26974174 Lattice="15.00000000 0.00000000 0.00000000 0.00000000 15.00000000 0.00000000 0.00000000 0.00000000 15.00000000" energy_frozen_part=0.00000000 Properties=species:S:1:pos:R:3:velocities:R:3:Z:I:1
H         6.59599870       7.57761332       4.20576198         0.00000000       0.00000000       0.00000000          1
H         8.65594239       7.69731727       6.08900169         0.00000000       0.00000000       0.00000000          1
H         5.58669014      10.00318134       5.15559637         0.00000000       0.00000000       0.00000000          1
H         7.64663809      10.12288251       7.03882970         0.00000000       0.00000000       0.00000000          1
H         5.99388668       7.87388963       6.91758578         0.00000000       0.00000000       0.00000000          1
H         8.24874901       9.82660786       4.32700985         0.00000000       0.00000000       0.00000000          1
6
pbc=[F, F, F] list_num_par=6 frozen=false iter=20000 energy=-1.26974174 Lattice="15.00000000 0.00000000 0.00000000 0.00000000 15.00000000 0.00000000 0.00000000 0.00000000 15.00000000" energy_frozen_part=0.00000000 Properties=species:S:1:pos:R:3:velocities:R:3:Z:I:1
H         6.59332609       7.57178309       4.20831630         0.00000000       0.00000000       0.00000000          1
H         8.65775482       7.69756388       6.08624836         0.00000000       0.00000000       0.00000000          1
H         5.58587124      10.00006338       5.15319035         0.00000000       0.00000000       0.00000000          1
H         7.65029749      10.12584003       7.03111654         0.00000000       0.00000000       0.00000000          1
H         5.99765564       7.87620600       6.92065206         0.00000000       0.00000000       0.00000000          1
H         8.24597309       9.82141642       4.31878336         0.00000000       0.00000000       0.00000000          1
6
pbc=[F, F, F] list_num_par=6 frozen=false iter=20000 energy=-1.26974174 Lattice="15.00000000 0.00000000 0.00000000 0.00000000 15.00000000 0.00000000 0.00000000 0.00000000 15.00000000" energy_frozen_part=0.00000000 Properties=species:S:1:pos:R:3:velocities:R:3:Z:I:1
H         6.48453310       6.65055195       4.20067612         0.00000000       0.00000000       0.00000000          1
H         7.76386454       6.97296141       6.66313062         0.00000000       0.00000000       0.00000000          1
H         6.14193579       9.41695666       4.01647448         0.00000000       0.00000000       0.00000000          1
H         7.42125873       9.73936120       6.47892134         0.00000000       0.00000000       0.00000000          1
H         5.21361205       8.04106950       6.26356969         0.00000000       0.00000000       0.00000000          1
H         8.69218607       8.34884675       4.41602885         0.00000000       0.00000000       0.00000000          1
6
pbc=[F, F, F] list_num_par=6 frozen=false iter=20000 energy=-1.26974174 Lattice="15.00000000 0.00000000 0.00000000 0.00000000 15.00000000 0.00000000 0.00000000 0.00000000 15.00000000" energy_frozen_part=0.00000000 Properties=species:S:1:pos:R:3:velocities:R:3:Z:I:1
H         6.59325180       7.57167151       4.20845865         0.00000000       0.00000000       0.00000000          1
H         8.65765472       7.69751308       6.08639906         0.00000000       0.00000000       0.00000000          1
H         5.58584390      10.00004193       5.15315604         0.00000000       0.00000000       0.00000000          1
H         7.65025211      10.12587791       7.03109501         0.00000000       0.00000000       0.00000000          1
H         5.99754558       7.87628727       6.92076410         0.00000000       0.00000000       0.00000000          1
H         8.24595148       9.82127119       4.31878942         0.00000000       0.00000000       0.00000000          1
6
pbc=[F, F, F] list_num_par=6 frozen=false iter=20000 energy=-1.26974174 Lattice="15.00000000 0.00000000 0.00000000 0.00000000 15.00000000 0.00000000 0.00000000 0.00000000 15.00000000" energy_frozen_part=0.00000000 Properties=species:S:1:pos:R:3:velocities:R:3:Z:I:1
H         6.59332133       7.57177371       4.20833175         0.00000000       0.00000000       0.00000000          1
H         8.65776197       7.69756671       6.08624468         0.00000000       0.00000000       0.00000000          1
H         5.58587115      10.00005713       5.15318977         0.00000000       0.00000000       0.00000000          1
H         7.65029927      10.12584570       7.03111657         0.00000000       0.00000000       0.00000000          1
H         5.99766714       7.87620472       6.92066744         0.00000000       0.00000000       0.00000000          1
H         8.24596423       9.82140953       4.31877115         0.00000000       0.00000000       0.00000000          1
6
pbc=[F, F, F] list_num_par=6 frozen=false iter=20000 energy=-1.26974174 Lattice="15.00000000 0.00000000 0.00000000 0.00000000 15.00000000 0.00000000 0.00000000 0.00000000 15.00000000" energy_frozen_part=0.00000000 Properties=species:S:1:pos:R:3:velocities:R:3:Z:I:1
H         6.98583232       7.28154447       3.94629104         0.00000000       0.00000000       0.00000000          1
H         8.38568534       6.23924442       6.12764643         0.00000000       0.00000000       0.00000000          1
H         5.81781152       9.19690730       5.61104742         0.00000000       0.00000000       0.00000000          1
H         7.21766486       8.15460066       7.79239768         0.00000000       0.00000000       0.00000000          1
H         5.60501426       6.48330225       6.23985217         0.00000000       0.00000000       0.00000000          1
H         8.59848884       8.95283984       5.49883408         0.00000000       0.00000000       0.00000000          1
6
pbc=[F, F, F] list_num_par=6 frozen=false iter=20000 energy=-1.26974174 Lattice="15.00000000 0.00000000 0.00000000 0.00000000 15.00000000 0.00000000 0.00000000 0.00000000 15.00000000" energy_frozen_part=0.00000000 Properties=species:S:1:pos:R:3:velocities:R:3:Z:I:1
H         6.59331773       7.57178039       4.20832279         0.00000000       0.00000000       0.00000000          1
H         8.65774875       7.69757026       6.08623938         0.00000000       0.00000000       0.00000000          1
H         5.58586549      10.00005636       5.15318477         0.00000000       0.00000000       0.00000000          1
H         7.65029794      10.12584828       7.03110598         0.00000000       0.00000000       0.00000000          1
H         5.99765410       7.87620810       6.92066895         0.00000000       0.00000000       0.00000000          1
H         8.24596560       9.82141853       4.31876483         0.00000000       0.00000000       0.00000000          1
6
pbc=[F, F, F] list_num_par=6 frozen=false iter=20000 energy=-1.26974174 Lattice="15.00000000 0.00000000 0.00000000 0.00000000 15.00000000 0.00000000 0.00000000 0.00000000 15.00000000" energy_frozen_part=0.00000000 Properties=species:S:1:pos:R:3:velocities:R:3:Z:I:1
H         6.59598978       7.57762263       4.20574517         0.00000000       0.00000000       0.00000000          1
H         8.65594421       7.69730388       6.08896178         0.00000000       0.00000000       0.00000000          1
H         5.58668241      10.00317374       5.15562676         0.00000000       0.00000000       0.00000000          1
H         7.64664229      10.12286536       7.03884440         0.00000000       0.00000000       0.00000000          1
H         5.99390028       7.87385794       6.91757359         0.00000000       0.00000000       0.00000000          1
H         8.24873433       9.82662497       4.32701478         0.00000000       0.00000000       0.00000000          1
6
pbc=[F, F, F] list_num_par=6 frozen=false iter=20000 energy=-1.26974174 Lattice="15.00000000 0.00000000 0.00000000 0.00000000 15.00000000 0.00000000 0.00000000 0.00000000 15.00000000" energy_frozen_part=0.00000000 Properties=species:S:1:pos:R:3:velocities:R:3:Z:I:1
H         6.59325951       7.57167927       4.20842298         0.00000000       0.00000000       0.00000000          1
H         8.65765846       7.69753413       6.08638264         0.00000000       0.00000000       0.00000000          1
H         5.58583471      10.00003881       5.15312541         0.00000000       0.00000000       0.00000000          1
H         7.65023679      10.12589543       7.03108209         0.00000000       0.00000000       0.00000000          1
H         5.99754895       7.87628915       6.92073412         0.00000000       0.00000000       0.00000000          1
H         8.24593861       9.82128383       4.31876724         0.00000000       0.00000000       0.00000000          1
6
pbc=[F, F, F] list_num_par=6 frozen=false iter=20000 energy=-1.26974174 Lattice="15.00000000 0.00000000 0.00000000 0.00000000 15.00000000 0.00000000 0.00000000 0.00000000 15.00000000" energy_frozen_part=0.00000000 Properties=species:S:1:pos:R:3:velocities:R:3:Z:I:1
H         6.59597033       7.57761062       4.20577311         0.00000000       0.00000000       0.00000000          1
H         8.65593155       7.69727835       6.08899367         0.00000000       0.00000000       0.00000000          1
H         5.58671926      10.00319309       5.15561743         0.00000000       0.00000000       0.00000000          1
H         7.64666914      10.12286458       7.03884378         0.00000000       0.00000000       0.00000000          1
H         5.99388675       7.87389311       6.91760046         0.00000000       0.00000000       0.00000000          1
H         8.24876510       9.82657927       4.32701684         0.00000000       0.00000000       0.00000000          1
6
pbc=[F, F, F] list_num_par=6 frozen=false iter=20000 energy=-1.26974174 Lattice="15.00000000 0.00000000 0.00000000 0.00000000 15.00000000 0.00000000 0.00000000 0.00000000 15.00000000" energy_frozen_part=0.00000000 Properties=species:S:1:pos:R:3:velocities:R:3:Z:I:1
H         6.98585324       7.28153796       3.94628869         0.00000000       0.00000000       0.00000000          1
H         8.38570176       6.23923323       6.12764317         0.00000000       0.00000000       0.00000000          1
H         5.81783042       9.19689278       5.61104263         0.00000000       0.00000000       0.00000000          1
H         7.21768963       8.15459659       7.79239743         0.00000000       0.00000000       0.00000000          1
H         5.60502965       6.48330507       6.23985284         0.00000000       0.00000000       0.00000000          1
H         8.59850700       8.95282689       5.49883498         0.00000000       0.00000000       0.00000000          1
6
pbc=[F, F, F] list_num_par=6 frozen=false iter=20000 energy=-1.26974174 Lattice="15.00000000 0.00000000 0.00000000 0.00000000 15.00000000 0.00000000 0.00000000 0.00000000 15.00000000" energy_frozen_part=0.00000000 Properties=species:S:1:pos:R:3:velocities:R:3:Z:I:1
H         6.48457478       6.65068505       4.20057332         0.00000000       0.00000000       0.00000000          1
H         7.76381586       6.97305502       6.66307554         0.00000000       0.00000000       0.00000000          1
H         6.14210846       9.41710541       4.01632495         0.00000000       0.00000000       0.00000000          1
H         7.42135314       9.73946473       6.47882086         0.00000000       0.00000000       0.00000000          1
H         5.21363108       8.04128267       6.26339713         0.00000000       0.00000000       0.00000000          1
H         8.69229103       8.34887536       4.41599302         0.00000000       0.00000000       0.00000000          1
6
pbc=[F, F, F] list_num_par=6 frozen=false iter=20000 energy=-1.26974174 Lattice="15.00000000 0.00000000 0.00000000 0.00000000 15.00000000 0.00000000 0.00000000 0.00000000 15.00000000" energy_frozen_part=0.00000000 Properties=species:S:1:pos:R:3:velocities:R:3:Z:I:1
H         6.48457678       6.65068332       4.20057170         0.00000000       0.00000000       0.00000000          1
H         7.76382854       6.97305113       6.66306654         0.00000000       0.00000000       0.00000000          1
H         6.14210064       9.41710265       4.01632070         0.00000000       0.00000000       0.00000000          1
H         7.42135176       9.73947038       6.47881511         0.00000000       0.00000000       0.00000000          1
H         5.21363649       8.04127214       6.26339185         0.00000000       0.00000000       0.00000000          1
H         8.69229130       8.34888406       4.41599134         0.00000000       0.00000000       0.00000000          1
6
pbc=[F, F, F] list_num_par=6 frozen=false iter=20000 energy=-1.26974174 Lattice="15.00000000 0.00000000 0.00000000 0.00000000 15.00000000 0.00000000 0.00000000 0.00000000 15.00000000" energy_frozen_part=0.00000000 Properties=species:S:1:pos:R:3:velocities:R:3:Z:I:1
H         6.98648639       7.28048068       3.94636153         0.00000000       0.00000000       0.00000000          1
H         8.38554490       6.23833563       6.12829854         0.00000000       0.00000000       0.00000000          1
H         5.81906143       9.19694105       5.61027833         0.00000000       0.00000000       0.00000000          1
H         7.21811708       8.15479175       7.79221152         0.00000000       0.00000000       0.00000000          1
H         5.60496582       6.48366624       6.23999784         0.00000000       0.00000000       0.00000000          1
H         8.59963918       8.95161165       5.49857558         0.00000000       0.00000000       0.00000000          1
6
pbc=[F, F, F] list_num_par=6 frozen=false iter=20000 energy=-1.26974174 Lattice="15.00000000 0.00000000 0.00000000 0.00000000 15.00000000 0.00000000 0.00000000 0.00000000 15.00000000" energy_frozen_part=0.00000000 Properties=species:S:1:pos:R:3:velocities:R:3:Z:I:1
H         6.59326100       7.57169367       4.20837924         0.00000000       0.00000000       0.00000000          1
H         8.65767197       7.69752592       6.08631914         0.00000000       0.00000000       0.00000000          1
H         5.58582372      10.00001768       5.15314405         0.00000000       0.00000000       0.00000000          1
H         7.65023697      10.12585899       7.03107582         0.00000000       0.00000000       0.00000000          1
H         5.99757844       7.87622975       6.92071064         0.00000000       0.00000000       0.00000000          1
H         8.24592884       9.82131630       4.31875678         0.00000000       0.00000000       0.00000000          1
6
pbc=[F, F, F] list_num_par=6 frozen=false iter=20000 energy=-1.26974174 Lattice="15.00000000 0.00000000 0.00000000 0.00000000 15.00000000 0.00000000 0.00000000 0.00000000 15.00000000" energy_frozen_part=0.00000000 Properties=species:S:1:pos:R:3:velocities:R:3:Z:I:1
H         6.98583364       7.28153272       3.94629626         0.00000000       0.00000000       0.00000000          1
H         8.38569112       6.23925786       6.12766111         0.00000000       0.00000000       0.00000000          1
H         5.81778614       9.19688638       5.61103615         0.00000000       0.00000000       0.00000000          1
H         7.21764660       8.15462028       7.79239447         0.00000000       0.00000000       0.00000000          1
H         5.60501474       6.48329241       6.23986457         0.00000000       0.00000000       0.00000000          1
H         8.59846729       8.95285227       5.49883444         0.00000000       0.00000000       0.00000000          1
6
pbc=[F, F, F] list_num_par=6 frozen=false iter=20000 energy=-1.26974174 Lattice="15.00000000 0.00000000 0.00000000 0.00000000 15.00000000 0.00000000 0.00000000 0.00000000 15.00000000" energy_frozen_part=0.00000000 Properties=species:S:1:pos:R:3:velocities:R:3:Z:I:1
H         6.59612119       7.57760394       4.20576478         0.00000000       0.00000000       0.00000000          1
H         8.65600151       7.69733630       6.08907456         0.00000000       0.00000000       0.00000000          1
H         5.58673820      10.00315063       5.15556700         0.00000000       0.00000000       0.00000000          1
H         7.64662258      10.12289053       7.03887488         0.00000000       0.00000000       0.00000000          1
H         5.99390866       7.87386405       6.91756171         0.00000000       0.00000000       0.00000000          1
H         8.24883840       9.82662893       4.32708003         0.00000000       0.00000000       0.00000000          1
6
pbc=[F, F, F] list_num_par=6 frozen=false iter=20000 energy=-1.26974174 Lattice="15.00000000 0.00000000 0.00000000 0.00000000 15.00000000 0.00000000 0.00000000 0.00000000 15.00000000" energy_frozen_part=0.00000000 Properties=species:S:1:pos:R:3:velocities:R:3:Z:I:1
H         6.98585355       7.28151499       3.94628946         0.00000000       0.00000000       0.00000000          1
H         8.38569745       6.23923488       6.12765798         0.00000000       0.00000000       0.00000000          1
H         5.81783270       9.19688553       5.61103558         0.00000000       0.00000000       0.00000000          1
H         7.21768401       8.15460335       7.79239909         0.00000000       0.00000000       0.00000000          1
H         5.60502442       6.48330009       6.23985844         0.00000000       0.00000000       0.00000000          1
H         8.59850059       8.95281853       5.49882736         0.00000000       0.00000000       0.00000000          1
6
pbc=[F, F, F] list_num_par=6 frozen=false iter=20000 energy=-1.26974174 Lattice="15.00000000 0.00000000 0.00000000 0.00000000 15.00000000 0.00000000 0.00000000 0.00000000 15.00000000" energy_frozen_part=0.00000000 Properties=species:S:1:pos:R:3:velocities:R:3:Z:I:1
H         6.48442941       6.65069056       4.20058527         0.00000000       0.00000000       0.00000000          1
H         7.76380468       6.97297625       6.66302180         0.00000000       0.00000000       0.00000000          1
H         6.14200464       9.41710985       4.01640831         0.00000000       0.00000000       0.00000000          1
H         7.42138667       9.73940270       6.47884547         0.00000000       0.00000000       0.00000000          1
H         5.21361659       8.04126608       6.26350538         0.00000000       0.00000000       0.00000000          1
H         8.69219127       8.34882506       4.41592573         0.00000000       0.00000000       0.00000000          1
6
pbc=[F, F, F] list_num_par=6 frozen=false iter=20000 energy=-1.26974174 Lattice="15.00000000 0.00000000 0.00000000 0.00000000 15.00000000 0.00000000 0.00000000 0.00000000 15.00000000" energy_frozen_part=0.00000000 Properties=species:S:1:pos:R:3:velocities:R:3:Z:I:1
H         6.59324602       7.57166839       4.20845668         0.00000000       0.00000000       0.00000000          1
H         8.65765629       7.69751780       6.08640081         0.00000000       0.00000000       0.00000000          1
H         5.58584203      10.00003191       5.15316759         0.00000000       0.00000000       0.00000000          1
H         7.65025464      10.12588464       7.03109792         0.00000000       0.00000000       0.00000000          1
H         5.99755605       7.87627863       6.92077494         0.00000000       0.00000000       0.00000000          1
H         8.24594060       9.82127386       4.31878011         0.00000000       0.00000000       0.00000000          1
6
pbc=[F, F, F] list_num_par=6 frozen=false iter=20000 energy=-1.26974174 Lattice="15.00000000 0.00000000 0.00000000 0.00000000 15.00000000 0.00000000 0.00000000 0.00000000 15.00000000" energy_frozen_part=0.00000000 Properties=species:S:1:pos:R:3:velocities:R:3:Z:I:1
H         6.59332051       7.57169604       4.20841494         0.00000000       0.00000000       0.00000000          1
H         8.65771963       7.69756729       6.08636590         0.00000000       0.00000000       0.00000000          1
H         5.58585689      10.00003055       5.15314707         0.00000000       0.00000000       0.00000000          1
H         7.65025544      10.12589207       7.03110429         0.00000000       0.00000000       0.00000000          1
H         5.99760862       7.87625702       6.92072905         0.00000000       0.00000000       0.00000000          1
H         8.24596859       9.82134012       4.31879384         0.00000000       0.00000000       0.00000000          1
6
pbc=[F, F, F] list_num_par=6 frozen=false iter=20000 energy=-1.26974174 Lattice="15.00000000 0.00000000 0.00000000 0.00000000 15.00000000 0.00000000 0.00000000 0.00000000 15.00000000" energy_frozen_part=0.00000000 Properties=species:S:1:pos:R:3:velocities:R:3:Z:I:1
H         6.98586826       7.28158868       3.94627450         0.00000000       0.00000000       0.00000000          1
H         8.38571882       6.23924201       6.12760553         0.00000000       0.00000000       0.00000000          1
H         5.81785123       9.19692052       5.61107004         0.00000000       0.00000000       0.00000000          1
H         7.21769868       8.15456810       7.79240867         0.00000000       0.00000000       0.00000000          1
H         5.60504233       6.48331006       6.23982184         0.00000000       0.00000000       0.00000000          1
H         8.59851632       8.95284926       5.49886067         0.00000000       0.00000000       0.00000000          1
6
pbc=[F, F, F] list_num_par=6 frozen=false iter=20000 energy=-1.26974174 Lattice="15.00000000 0.00000000 0.00000000 0.00000000 15.00000000 0.00000000 0.00000000 0.00000000 15.00000000" energy_frozen_part=0.00000000 Properties=species:S:1:pos:R:3:velocities:R:3:Z:I:1
H         6.98587322       7.28155038       3.94629775         0.00000000       0.00000000       0.00000000          1
H         8.38573450       6.23927221       6.12765551         0.00000000       0.00000000       0.00000000          1
H         5.81782325       9.19688982       5.61104433         0.00000000       0.00000000       0.00000000          1
H         7.21767485       8.15460999       7.79240928         0.00000000       0.00000000       0.00000000          1
H         5.60505308       6.48329181       6.23985465         0.00000000       0.00000000       0.00000000          1
H         8.59850264       8.95286783       5.49884996         0.00000000       0.00000000       0.00000000          1
6
pbc=[F, F, F] list_num_par=6 frozen=false iter=20000 energy=-1.26974174 Lattice="15.00000000 0.00000000 0.00000000 0.00000000 15.00000000 0.00000000 0.00000000 0.00000000 15.00000000" energy_frozen_part=0.00000000 Properties=species:S:1:pos:R:3:velocities:R:3:Z:I:1
H         6.59596334       7.57761904       4.20574277         0.00000000       0.00000000       0.00000000          1
H         8.65593547       7.69729901       6.08895426         0.00000000       0.00000000       0.00000000          1
H         5.58667689      10.00318622       5.15562702         0.00000000       0.00000000       0.00000000          1
H         7.64665237      10.12286652       7.03882387         0.00000000       0.00000000       0.00000000          1
H         5.99389643       7.87387036       6.91757935         0.00000000       0.00000000       0.00000000          1
H         8.24872013       9.82661492       4.32699396         0.00000000       0.00000000       0.00000000          1
6
pbc=[F, F, F] list_num_par=6 frozen=false iter=20000 energy=-1.26974174 Lattice="15.00000000 0.00000000 0.00000000 0.00000000 15.00000000 0.00000000 0.00000000 0.00000000 15.00000000" energy_frozen_part=0.00000000 Properties=species:S:1:pos:R:3:velocities:R:3:Z:I:1
H         6.98584357       7.28153259       3.94628767         0.00000000       0.00000000       0.00000000          1
H         8.38568657       6.23924689       6.12766189         0.00000000       0.00000000       0.00000000          1
H         5.81778885       9.19686992       5.61103419         0.00000000       0.00000000       0.00000000          1
H         7.21761882       8.15458466       7.79240837         0.00000000       0.00000000       0.00000000          1
H         5.60501122       6.48327290       6.23983874         0.00000000       0.00000000       0.00000000          1
H         8.59845601       8.95284648       5.49886063         0.00000000       0.00000000       0.00000000          1
6
pbc=[F, F, F] list_num_par=6 frozen=false iter=20000 energy=-1.26974174 Lattice="15.00000000 0.00000000 0.00000000 0.00000000 15.00000000 0.00000000 0.00000000 0.00000000 15.00000000" energy_frozen_part=0.00000000 Properties=species:S:1:pos:R:3:velocities:R:3:Z:I:1
H         6.59595790       7.57762639       4.20573665         0.00000000       0.00000000       0.00000000          1
H         8.65593109       7.69730061       6.08894646         0.00000000       0.00000000       0.00000000          1
H         5.58667298      10.00318972       5.15561786         0.00000000       0.00000000       0.00000000          1
H         7.64665064      10.12285876       7.03882645         0.00000000       0.00000000       0.00000000          1
H         5.99388475       7.87386573       6.91757181         0.00000000       0.00000000       0.00000000          1
H         8.24871907       9.82662184       4.32699723         0.00000000       0.00000000       0.00000000          1
6
pbc=[F, F, F] list_num_par=6 frozen=false iter=20000 energy=-1.26974174 Lattice="15.00000000 0.00000000 0.00000000 0.00000000 15.00000000 0.00000000 0.00000000 0.00000000 15.00000000" energy_frozen_part=0.00000000 Properties=species:S:1:pos:R:3:velocities:R:3:Z:I:1
H         6.98583247       7.28153698       3.94629890         0.00000000       0.00000000       0.00000000          1
H         8.38565983       6.23922745       6.12765972         0.00000000       0.00000000       0.00000000          1
H         5.81780724       9.19689371       5.61105266         0.00000000       0.00000000       0.00000000          1
H         7.21764952       8.15459775       7.79240970         0.00000000       0.00000000       0.00000000          1
H         5.60499151       6.48330350       6.23985593         0.00000000       0.00000000       0.00000000          1
H         8.59848056       8.95282368       5.49885345         0.00000000       0.00000000       0.00000000          1
6
pbc=[F, F, F] list_num_par=6 frozen=false iter=20000 energy=-1.26974174 Lattice="15.00000000 0.00000000 0.00000000 0.00000000 15.00000000 0.00000000 0.00000000 0.00000000 15.00000000" energy_frozen_part=0.00000000 Properties=species:S:1:pos:R:3:velocities:R:3:Z:I:1
H         6.98585411       7.28150910       3.94628961         0.00000000       0.00000000       0.00000000          1
H         8.38569463       6.23922365       6.12766095         0.00000000       0.00000000       0.00000000          1
H         5.81783297       9.19688642       5.61103146         0.00000000       0.00000000       0.00000000          1
H         7.21768380       8.15460380       7.79239572         0.00000000       0.00000000       0.00000000          1
H         5.60503115       6.48329610       6.23985915         0.00000000       0.00000000       0.00000000          1
H         8.59850190       8.95282084       5.49882185         0.00000000       0.00000000       0.00000000          1
6
pbc=[F, F, F] list_num_par=6 frozen=false iter=20000 energy=-1.26974174 Lattice="15.00000000 0.00000000 0.00000000 0.00000000 15.00000000 0.00000000 0.00000000 0.00000000 15.00000000" energy_frozen_part=0.00000000 Properties=species:S:1:pos:R:3:velocities:R:3:Z:I:1
H         6.48457194       6.65074467       4.20050736         0.00000000       0.00000000       0.00000000          1
H         7.76386150       6.97302045       6.66299191         0.00000000       0.00000000       0.00000000          1