6
pbc=[F, F, F] list_num_par=6 frozen=false iter=9 energy=13.25608930 Lattice="15.00000000 0.00000000 0.00000000 0.00000000 15.00000000 0.00000000 0.00000000 0.00000000 15.00000000" energy_frozen_part=0.00000000 Properties=species:S:1:pos:R:3:velocities:R:3:Z:I:1
H        13.28425472       2.45406490       6.23224817         0.00000000       0.00000000       0.00000000          1
H         0.85576957      14.81372325       7.17969270         0.00000000       0.00000000       0.00000000          1
H         3.54177023       4.91058595       3.41745770         0.00000000       0.00000000       0.00000000          1
H         2.24612624       3.58457957       8.07421053         0.00000000       0.00000000       0.00000000          1
H        10.10900018      12.49341746       7.03029794         0.00000000       0.00000000       0.00000000          1
H         2.63032329       5.38196068       8.17011855         0.00000000       0.00000000       0.00000000          1
6
pbc=[F, F, F] list_num_par=6 frozen=false iter=19 energy=1.04172574 Lattice="15.00000000 0.00000000 0.00000000 0.00000000 15.00000000 0.00000000 0.00000000 0.00000000 15.00000000" energy_frozen_part=0.00000000 Properties=species:S:1:pos:R:3:velocities:R:3:Z:I:1
H         1.55378546       6.65073855      12.07820671         0.00000000       0.00000000       0.00000000          1
H        13.40972905      12.98506927       9.52086804         0.00000000       0.00000000       0.00000000          1
H        12.19437607      13.50736030       7.77943231         0.00000000       0.00000000       0.00000000          1
H         2.58694411       4.73205920      13.45171916         0.00000000       0.00000000       0.00000000          1
H         5.69468797       0.19662701      12.00878118         0.00000000       0.00000000       0.00000000          1
H         0.18681657      14.62430274      12.46426767         0.00000000       0.00000000       0.00000000          1
6
pbc=[F, F, F] list_num_par=6 frozen=false iter=29 energy=-0.00235436 Lattice="15.00000000 0.00000000 0.00000000 0.00000000 15.00000000 0.00000000 0.00000000 0.00000000 15.00000000" energy_frozen_part=0.00000000 Properties=species:S:1:pos:R:3:velocities:R:3:Z:I:1
H         1.20174242       8.25931348       8.64845055         0.00000000       0.00000000       0.00000000          1
H         6.97344236       0.11960295       9.32690121         0.00000000       0.00000000       0.00000000          1
H        14.86213526      13.88291878      14.21819246         0.00000000       0.00000000       0.00000000          1
H         6.62088039       5.64061761       5.18072168         0.00000000       0.00000000       0.00000000          1
H         0.13992374      14.65942970       2.39065109         0.00000000       0.00000000       0.00000000          1
H        12.19614244       9.94224796       5.83145102         0.00000000       0.00000000       0.00000000          1
6
pbc=[F, F, F] list_num_par=6 frozen=false iter=39 energy=-0.00681024 Lattice="15.00000000 0.00000000 0.00000000 0.00000000 15.00000000 0.00000000 0.00000000 0.00000000 15.00000000" energy_frozen_part=0.00000000 Properties=species:S:1:pos:R:3:velocities:R:3:Z:I:1
H         3.94826865      14.88860553       8.19642138         0.00000000       0.00000000       0.00000000          1
H         0.13864358       0.49164823       8.10201155         0.00000000       0.00000000       0.00000000          1
H        12.88789299      13.76953575      12.17497410         0.00000000       0.00000000       0.00000000          1
H         8.64313851      10.31551525       4.02280000         0.00000000       0.00000000       0.00000000          1
H         5.91882267       4.57608091       8.78158541         0.00000000       0.00000000       0.00000000          1
H         2.16087581       2.84815628       3.80665951         0.00000000       0.00000000       0.00000000          1
6
pbc=[F, F, F] list_num_par=6 frozen=false iter=49 energy=-0.00997807 Lattice="15.00000000 0.00000000 0.00000000 0.00000000 15.00000000 0.00000000 0.00000000 0.00000000 15.00000000" energy_frozen_part=0.00000000 Properties=species:S:1:pos:R:3:velocities:R:3:Z:I:1
H         6.07551395      10.53191214      11.73373482         0.00000000       0.00000000       0.00000000          1
H        10.79987478       7.42813667       0.31940592         0.00000000       0.00000000       0.00000000          1
H         4.42370770      11.07823723       6.10700932         0.00000000       0.00000000       0.00000000          1
H         4.74232871       2.43187466       2.43609105         0.00000000       0.00000000       0.00000000          1
H         8.47069056       3.06098764       8.82907958         0.00000000       0.00000000       0.00000000          1
H         9.79136975       1.95992720       0.29794627         0.00000000       0.00000000       0.00000000          1
6
pbc=[F, F, F] list_num_par=6 frozen=false iter=59 energy=-0.01406267 Lattice="15.00000000 0.00000000 0.00000000 0.00000000 15.00000000 0.00000000 0.00000000 0.00000000 15.00000000" energy_frozen_part=0.00000000 Properties=species:S:1:pos:R:3:velocities:R:3:Z:I:1
H         0.06335043       7.49415927       4.70812027         0.00000000       0.00000000       0.00000000          1
H        12.87223681      11.67171146       2.35237225         0.00000000       0.00000000       0.00000000          1
H         2.92596681       8.88275215       7.87889552         0.00000000       0.00000000       0.00000000          1
H         9.46729803       4.14013127       6.18729124         0.00000000       0.00000000       0.00000000          1
H         5.06439852      14.14954705       1.36328394         0.00000000       0.00000000       0.00000000          1
H        14.62823236       5.66064870       9.01044236         0.00000000       0.00000000       0.00000000          1
6
pbc=[F, F, F] list_num_par=6 frozen=false iter=69 energy=-0.01944268 Lattice="15.00000000 0.00000000 0.00000000 0.00000000 15.00000000 0.00000000 0.00000000 0.00000000 15.00000000" energy_frozen_part=0.00000000 Properties=species:S:1:pos:R:3:velocities:R:3:Z:I:1
H         1.91548165       3.11873553       2.80833806         0.00000000       0.00000000       0.00000000          1
H         7.86145921       5.92383824       2.18854127         0.00000000       0.00000000       0.00000000          1
H        12.71150962      11.28740447      13.29467320         0.00000000       0.00000000       0.00000000          1
H         1.94843685      11.82464205      12.48435110         0.00000000       0.00000000       0.00000000          1
H         2.07606839      12.57064366       2.74355762         0.00000000       0.00000000       0.00000000          1
H         2.96622472       7.73287187       1.86904650         0.00000000       0.00000000       0.00000000          1
6
pbc=[F, F, F] list_num_par=6 frozen=false iter=79 energy=-0.02284141 Lattice="15.00000000 0.00000000 0.00000000 0.00000000 15.00000000 0.00000000 0.00000000 0.00000000 15.00000000" energy_frozen_part=0.00000000 Properties=species:S:1:pos:R:3:velocities:R:3:Z:I:1
H        12.30150290       8.69261245      13.33580173         0.00000000       0.00000000       0.00000000          1
H         8.44229397       7.70056412      10.53017601         0.00000000       0.00000000       0.00000000          1
H         3.04542488       2.64524816       1.22567149         0.00000000       0.00000000       0.00000000          1
H         0.52084094       4.58703217       4.44597964         0.00000000       0.00000000       0.00000000          1
H        11.33290021      14.49349545      13.74579850         0.00000000       0.00000000       0.00000000          1
H         8.41674035       5.06550927       1.33118411         0.00000000       0.00000000       0.00000000          1
6
pbc=[F, F, F] list_num_par=6 frozen=false iter=89 energy=-0.02762464 Lattice="15.00000000 0.00000000 0.00000000 0.00000000 15.00000000 0.00000000 0.00000000 0.00000000 15.00000000" energy_frozen_part=0.00000000 Properties=species:S:1:pos:R:3:velocities:R:3:Z:I:1
H        11.57030438      10.84393191       4.28255286         0.00000000       0.00000000       0.00000000          1
H         3.90327341       6.18430321      14.06673853         0.00000000       0.00000000       0.00000000          1
H        12.69321317       6.71049367      11.31337339         0.00000000       0.00000000       0.00000000          1
H         6.94060505       8.46807410       1.43281570         0.00000000       0.00000000       0.00000000          1
H         1.37942071       9.31995574       8.95218399         0.00000000       0.00000000       0.00000000          1
H         5.45613929       9.60263277      12.45636921         0.00000000       0.00000000       0.00000000          1
6
pbc=[F, F, F] list_num_par=6 frozen=false iter=99 energy=-0.03145434 Lattice="15.00000000 0.00000000 0.00000000 0.00000000 15.00000000 0.00000000 0.00000000 0.00000000 15.00000000" energy_frozen_part=0.00000000 Properties=species:S:1:pos:R:3:velocities:R:3:Z:I:1
H         1.34985511       1.04368136       0.77453236         0.00000000       0.00000000       0.00000000          1
H        11.16916186       0.76771889       7.77521598         0.00000000       0.00000000       0.00000000          1
H         0.74760536       5.89800233      14.41054727         0.00000000       0.00000000       0.00000000          1
H         5.05113727       7.90031308       1.22510781         0.00000000       0.00000000       0.00000000          1
H         8.81959725       7.95845186       1.37835046         0.00000000       0.00000000       0.00000000          1
H         8.18333434      12.98590225       8.40891336         0.00000000       0.00000000       0.00000000          1
6
pbc=[F, F, F] list_num_par=6 frozen=false iter=109 energy=-0.03573345 Lattice="15.00000000 0.00000000 0.00000000 0.00000000 15.00000000 0.00000000 0.00000000 0.00000000 15.00000000" energy_frozen_part=0.00000000 Properties=species:S:1:pos:R:3:velocities:R:3:Z:I:1
H        14.24381963       8.60764025       2.28190421         0.00000000       0.00000000       0.00000000          1
H        11.32842485       9.66978344      11.23612664         0.00000000       0.00000000       0.00000000          1
H        11.26938427       8.23736731       7.66559022         0.00000000       0.00000000       0.00000000          1
H         4.34221586       4.88834885       8.28518968         0.00000000       0.00000000       0.00000000          1
H         0.29439203       1.77359237       9.28384341         0.00000000       0.00000000       0.00000000          1
H         4.66641292      12.49359543       8.57456431         0.00000000       0.00000000       0.00000000          1
6
pbc=[F, F, F] list_num_par=6 frozen=false iter=119 energy=-0.04194622 Lattice="15.00000000 0.00000000 0.00000000 0.00000000 15.00000000 0.00000000 0.00000000 0.00000000 15.00000000" energy_frozen_part=0.00000000 Properties=species:S:1:pos:R:3:velocities:R:3:Z:I:1
H         6.60483592      12.70761646       1.90621406         0.00000000       0.00000000       0.00000000          1
H         4.16064480       4.42653281      14.77473275         0.00000000       0.00000000       0.00000000          1
H        13.96540680       0.76620550       6.27779865         0.00000000       0.00000000       0.00000000          1
H         5.75958531       7.45506102       7.46446073         0.00000000       0.00000000       0.00000000          1
H        12.47783119       6.11315612       2.48393475         0.00000000       0.00000000       0.00000000          1
H         8.29104581       9.75386025       0.60534411         0.00000000       0.00000000       0.00000000          1
6
pbc=[F, F, F] list_num_par=6 frozen=false iter=129 energy=-0.04593987 Lattice="15.00000000 0.00000000 0.00000000 0.00000000 15.00000000 0.00000000 0.00000000 0.00000000 15.00000000" energy_frozen_part=0.00000000 Properties=species:S:1:pos:R:3:velocities:R:3:Z:I:1
H         2.38001097       7.92254230       5.63913385         0.00000000       0.00000000       0.00000000          1
H        12.52689774       8.83786556       4.74085375         0.00000000       0.00000000       0.00000000          1
H         3.77470853      14.66322602       6.74111966         0.00000000       0.00000000       0.00000000          1
H         4.08570972       4.69094358       5.08667894         0.00000000       0.00000000       0.00000000          1
H         0.59108928       0.20102072       0.78858084         0.00000000       0.00000000       0.00000000          1
H        13.48801357       4.47383045       3.61957051         0.00000000       0.00000000       0.00000000          1
6
pbc=[F, F, F] list_num_par=6 frozen=false iter=139 energy=-0.05112117 Lattice="15.00000000 0.00000000 0.00000000 0.00000000 15.00000000 0.00000000 0.00000000 0.00000000 15.00000000" energy_frozen_part=0.00000000 Properties=species:S:1:pos:R:3:velocities:R:3:Z:I:1
H        11.64540187       4.35591345       3.88490889         0.00000000       0.00000000       0.00000000          1
H         8.83602175       3.84410577       1.21903741         0.00000000       0.00000000       0.00000000          1
H         6.11740113       1.98357907       5.49443381         0.00000000       0.00000000       0.00000000          1
H         8.28877460       9.27577978       1.18829518         0.00000000       0.00000000       0.00000000          1
H         4.09310161       7.31505678      13.28579896         0.00000000       0.00000000       0.00000000          1
H         6.18517012      12.94651713       0.61037115         0.00000000       0.00000000       0.00000000          1
6
pbc=[F, F, F] list_num_par=6 frozen=false iter=149 energy=-0.05810634 Lattice="15.00000000 0.00000000 0.00000000 0.00000000 15.00000000 0.00000000 0.00000000 0.00000000 15.00000000" energy_frozen_part=0.00000000 Properties=species:S:1:pos:R:3:velocities:R:3:Z:I:1
H        13.91315428       1.43377695       9.51919517         0.00000000       0.00000000       0.00000000          1
H        14.31039240      12.87781243       9.32629303         0.00000000       0.00000000       0.00000000          1
H        13.80139810       1.57237023       5.88596967         0.00000000       0.00000000       0.00000000          1
H        12.96664814      12.14476585      13.53583097         0.00000000       0.00000000       0.00000000          1
H        13.65095567       1.44158024       0.83586929         0.00000000       0.00000000       0.00000000          1
H         9.17331039       9.17408096       9.57531542         0.00000000       0.00000000       0.00000000          1
6
pbc=[F, F, F] list_num_par=6 frozen=false iter=159 energy=-0.06330094 Lattice="15.00000000 0.00000000 0.00000000 0.00000000 15.00000000 0.00000000 0.00000000 0.00000000 15.00000000" energy_frozen_part=0.00000000 Properties=species:S:1:pos:R:3:velocities:R:3:Z:I:1
H        11.82498351       8.11587834       6.31686519         0.00000000       0.00000000       0.00000000          1
H        14.19362146       9.32355695       3.23830351         0.00000000       0.00000000       0.00000000          1
H         1.69557864       4.62318457       1.30300113         0.00000000       0.00000000       0.00000000          1
H        14.89614050      12.85776648       3.37764998         0.00000000       0.00000000       0.00000000          1
H         2.99946363      13.54588649       9.86134418         0.00000000       0.00000000       0.00000000          1
H         0.23883650       9.65369778       4.69365512         0.00000000       0.00000000       0.00000000          1
6
pbc=[F, F, F] list_num_par=6 frozen=false iter=169 energy=-0.06899219 Lattice="15.00000000 0.00000000 0.00000000 0.00000000 15.00000000 0.00000000 0.00000000 0.00000000 15.00000000" energy_frozen_part=0.00000000 Properties=species:S:1:pos:R:3:velocities:R:3:Z:I:1
H        11.34861441       7.64841984      14.53932555         0.00000000       0.00000000       0.00000000          1
H         7.28001513       1.91198475       1.85625954         0.00000000       0.00000000       0.00000000          1
H        13.10641018      11.33397625       9.98885122         0.00000000       0.00000000       0.00000000          1
H         5.85575753      14.69469958       0.83663532         0.00000000       0.00000000       0.00000000          1
H        11.50343758       5.79547906       0.50767481         0.00000000       0.00000000       0.00000000          1
H        14.92380372      10.05485558       8.64721329         0.00000000       0.00000000       0.00000000          1
6
pbc=[F, F, F] list_num_par=6 frozen=false iter=179 energy=-0.07218559 Lattice="15.00000000 0.00000000 0.00000000 0.00000000 15.00000000 0.00000000 0.00000000 0.00000000 15.00000000" energy_frozen_part=0.00000000 Properties=species:S:1:pos:R:3:velocities:R:3:Z:I:1
H         5.94024756       3.85510950       2.55772118         0.00000000       0.00000000       0.00000000          1
H        10.61904369       1.45190971       1.34949288         0.00000000       0.00000000       0.00000000          1
H        13.09443160       3.51574086       0.65305381         0.00000000       0.00000000       0.00000000          1
H         3.36913305       8.67641541       8.64324694         0.00000000       0.00000000       0.00000000          1
H         2.11917167       5.30342369      12.61443697         0.00000000       0.00000000       0.00000000          1
H        12.08540600       1.88347056       7.54531449         0.00000000       0.00000000       0.00000000          1
6
pbc=[F, F, F] list_num_par=6 frozen=false iter=189 energy=-0.07977006 Lattice="15.00000000 0.00000000 0.00000000 0.00000000 15.00000000 0.00000000 0.00000000 0.00000000 15.00000000" energy_frozen_part=0.00000000 Properties=species:S:1:pos:R:3:velocities:R:3:Z:I:1
H         6.43038487      10.75968572      12.64756538         0.00000000       0.00000000       0.00000000          1
H        11.03884637      11.94216223       0.54554801         0.00000000       0.00000000       0.00000000          1
H         0.80081816       5.75770610       4.18302570         0.00000000       0.00000000       0.00000000          1
H         4.55819998       0.80093637       2.82338082         0.00000000       0.00000000       0.00000000          1
H         2.91231549       8.01066855      11.23632880         0.00000000       0.00000000       0.00000000          1
H         8.93549486      12.69872565      13.19666713         0.00000000       0.00000000       0.00000000          1
6
pbc=[F, F, F] list_num_par=6 frozen=false iter=199 energy=-0.08609919 Lattice="15.00000000 0.00000000 0.00000000 0.00000000 15.00000000 0.00000000 0.00000000 0.00000000 15.00000000" energy_frozen_part=0.00000000 Properties=species:S:1:pos:R:3:velocities:R:3:Z:I:1
H         1.30095039       8.17776297      14.30215341         0.00000000       0.00000000       0.00000000          1
H        10.64551686      14.42398385       5.19624011         0.00000000       0.00000000       0.00000000          1
H         0.02685104       7.76194576       0.05214085         0.00000000       0.00000000       0.00000000          1
H         7.51836681       5.62888001       4.21205851         0.00000000       0.00000000       0.00000000          1
H         1.28640019       6.97317685      11.51047604         0.00000000       0.00000000       0.00000000          1
H        12.34766786       0.33855595       3.75624874         0.00000000       0.00000000       0.00000000          1
6
pbc=[F, F, F] list_num_par=6 frozen=false iter=209 energy=-0.08983179 Lattice="15.00000000 0.00000000 0.00000000 0.00000000 15.00000000 0.00000000 0.00000000 0.00000000 15.00000000" energy_frozen_part=0.00000000 Properties=species:S:1:pos:R:3:velocities:R:3:Z:I:1
H         3.10044748       6.11844353      11.76782468         0.00000000       0.00000000       0.00000000          1
H         8.87781466      12.92464710      10.23126729         0.00000000       0.00000000       0.00000000          1
H         9.12125276       1.94274875      12.75684253         0.00000000       0.00000000       0.00000000          1
H         8.03787556       4.80950490      14.32161410         0.00000000       0.00000000       0.00000000          1
H         9.67631348      14.17797889       6.49490756         0.00000000       0.00000000       0.00000000          1
H         2.02287990       2.74886009      14.39187661         0.00000000       0.00000000       0.00000000          1
6
pbc=[F, F, F] list_num_par=6 frozen=false iter=219 energy=-0.09441676 Lattice="15.00000000 0.00000000 0.00000000 0.00000000 15.00000000 0.00000000 0.00000000 0.00000000 15.00000000" energy_frozen_part=0.00000000 Properties=species:S:1:pos:R:3:velocities:R:3:Z:I:1
H         9.19525144      14.67856256      13.40825542         0.00000000       0.00000000       0.00000000          1
H        11.00334465       1.86097200      13.13920706         0.00000000       0.00000000       0.00000000          1
H         5.69905930      12.48882865       7.62487552         0.00000000       0.00000000       0.00000000          1
H        13.49621037      11.08421006      14.47632029         0.00000000       0.00000000       0.00000000          1
H         5.57625567       3.08791110       0.16445069         0.00000000       0.00000000       0.00000000          1
H         6.45438283      13.61547621      12.65960519         0.00000000       0.00000000       0.00000000          1
6
pbc=[F, F, F] list_num_par=6 frozen=false iter=229 energy=-0.09785382 Lattice="15.00000000 0.00000000 0.00000000 0.00000000 15.00000000 0.00000000 0.00000000 0.00000000 15.00000000" energy_frozen_part=0.00000000 Properties=species:S:1:pos:R:3:velocities:R:3:Z:I:1
H         2.22333534       3.30734854       9.64348080         0.00000000       0.00000000       0.00000000          1
H        12.21259981       1.67740057       9.01471595         0.00000000       0.00000000       0.00000000          1
H         0.01917816      12.76384934      14.54109029         0.00000000       0.00000000       0.00000000          1
H        13.07359107       6.62115768       3.87523235         0.00000000       0.00000000       0.00000000          1
H         2.22443464      13.44048144      12.79788341         0.00000000       0.00000000       0.00000000          1
H         0.09975808       1.46922145       0.58335791         0.00000000       0.00000000       0.00000000          1
6
pbc=[F, F, F] list_num_par=6 frozen=false iter=239 energy=-0.10027465 Lattice="15.00000000 0.00000000 0.00000000 0.00000000 15.00000000 0.00000000 0.00000000 0.00000000 15.00000000" energy_frozen_part=0.00000000 Properties=species:S:1:pos:R:3:velocities:R:3:Z:I:1
H         0.95319719       0.43298702       6.39407982         0.00000000       0.00000000       0.00000000          1
H         5.94703968      11.20817937       0.63636378         0.00000000       0.00000000       0.00000000          1
H         6.06997891      13.84467837       2.54670033         0.00000000       0.00000000       0.00000000          1
H        10.56679717      14.07320157       4.60756953         0.00000000       0.00000000       0.00000000          1
H        10.97319677      10.68472247       6.63196905         0.00000000       0.00000000       0.00000000          1
H         7.97173727       6.09984133       2.50467760         0.00000000       0.00000000       0.00000000          1
6
pbc=[F, F, F] list_num_par=6 frozen=false iter=249 energy=-0.10239619 Lattice="15.00000000 0.00000000 0.00000000 0.00000000 15.00000000 0.00000000 0.00000000 0.00000000 15.00000000" energy_frozen_part=0.00000000 Properties=species:S:1:pos:R:3:velocities:R:3:Z:I:1
H         0.85549497       8.03097891       9.84578339         0.00000000       0.00000000       0.00000000          1
H        13.36404513      11.31671259       8.85641861         0.00000000       0.00000000       0.00000000          1
H        11.14701235      13.46441814       8.19644124         0.00000000       0.00000000       0.00000000          1
H         7.54113202       9.20649044      10.39983457         0.00000000       0.00000000       0.00000000          1
H         7.86726077       5.38802051       8.65476858         0.00000000       0.00000000       0.00000000          1
H         3.63163043      11.39020498       6.56951392         0.00000000       0.00000000       0.00000000          1
6
pbc=[F, F, F] list_num_par=6 frozen=false iter=259 energy=-0.10486531 Lattice="15.00000000 0.00000000 0.00000000 0.00000000 15.00000000 0.00000000 0.00000000 0.00000000 15.00000000" energy_frozen_part=0.00000000 Properties=species:S:1:pos:R:3:velocities:R:3:Z:I:1
H         2.64048755       5.98553773      13.65514459         0.00000000       0.00000000       0.00000000          1
H         1.47911632      14.16874310       0.72912413         0.00000000       0.00000000       0.00000000          1
H         4.34457634       2.34239892      10.46267490         0.00000000       0.00000000       0.00000000          1
H         5.09974433       6.23823926       3.71521079         0.00000000       0.00000000       0.00000000          1
H         2.64593783      11.46057853      11.59764987         0.00000000       0.00000000       0.00000000          1
H         7.32170700       5.83182709       2.17794454         0.00000000       0.00000000       0.00000000          1
6
pbc=[F, F, F] list_num_par=6 frozen=false iter=269 energy=-0.10712082 Lattice="15.00000000 0.00000000 0.00000000 0.00000000 15.00000000 0.00000000 0.00000000 0.00000000 15.00000000" energy_frozen_part=0.00000000 Properties=species:S:1:pos:R:3:velocities:R:3:Z:I:1
H         5.88835924       7.35916778       8.97218163         0.00000000       0.00000000       0.00000000          1
H        13.07146705       6.64401242       5.80181658         0.00000000       0.00000000       0.00000000          1
H         1.26681159       9.46311160       7.12142447         0.00000000       0.00000000       0.00000000          1
H         4.15496321       2.16791179       3.01599916         0.00000000       0.00000000       0.00000000          1
H         0.71355846       8.62844290       9.98632948         0.00000000       0.00000000       0.00000000          1
H        11.92154345       9.07985625       9.37792036         0.00000000       0.00000000       0.00000000          1
6
pbc=[F, F, F] list_num_par=6 frozen=false iter=279 energy=-0.10969014 Lattice="15.00000000 0.00000000 0.00000000 0.00000000 15.00000000 0.00000000 0.00000000 0.00000000 15.00000000" energy_frozen_part=0.00000000 Properties=species:S:1:pos:R:3:velocities:R:3:Z:I:1
H         5.66041646       7.74204057       6.01117304         0.00000000       0.00000000       0.00000000          1
H        13.19811755       4.69375840       8.80097259         0.00000000       0.00000000       0.00000000          1
H         4.36874681       6.53110573      11.88787309         0.00000000       0.00000000       0.00000000          1
H        10.73211977       5.59879379       8.26078743         0.00000000       0.00000000       0.00000000          1
H         2.74855125      10.52759094       9.07121124         0.00000000       0.00000000       0.00000000          1
H         1.68822875       5.21437537       3.41442116         0.00000000       0.00000000       0.00000000          1
6
pbc=[F, F, F] list_num_par=6 frozen=false iter=289 energy=-0.11243749 Lattice="15.00000000 0.00000000 0.00000000 0.00000000 15.00000000 0.00000000 0.00000000 0.00000000 15.00000000" energy_frozen_part=0.00000000 Properties=species:S:1:pos:R:3:velocities:R:3:Z:I:1
H         6.44577566       0.68198515       6.45249655         0.00000000       0.00000000       0.00000000          1
H         7.21897583      14.51460424       6.59479805         0.00000000       0.00000000       0.00000000          1
H         7.71717302       5.91242442      14.40738579         0.00000000       0.00000000       0.00000000          1
H        10.04769711      10.22819037       1.89412680         0.00000000       0.00000000       0.00000000          1
H         9.50498453      14.76348863       5.04324299         0.00000000       0.00000000       0.00000000          1
H         6.10668847       1.75440305      11.51758844         0.00000000       0.00000000       0.00000000          1
6
pbc=[F, F, F] list_num_par=6 frozen=false iter=299 energy=-0.11473297 Lattice="15.00000000 0.00000000 0.00000000 0.00000000 15.00000000 0.00000000 0.00000000 0.00000000 15.00000000" energy_frozen_part=0.00000000 Properties=species:S:1:pos:R:3:velocities:R:3:Z:I:1
H         4.73138810      13.74408090       0.84439097         0.00000000       0.00000000       0.00000000          1
H         7.00481370      12.96146109       2.72734344         0.00000000       0.00000000       0.00000000          1
H         5.64800051       8.28960396       3.35456713         0.00000000       0.00000000       0.00000000          1
H        13.62619797       2.75687369       4.85545697         0.00000000       0.00000000       0.00000000          1
H         1.47268606      11.84881989      14.27015216         0.00000000       0.00000000       0.00000000          1
H         7.88241857       6.72852059       0.34583999         0.00000000       0.00000000       0.00000000          1
6
pbc=[F, F, F] list_num_par=6 frozen=false iter=309 energy=-0.11784970 Lattice="15.00000000 0.00000000 0.00000000 0.00000000 15.00000000 0.00000000 0.00000000 0.00000000 15.00000000" energy_frozen_part=0.00000000 Properties=species:S:1:pos:R:3:velocities:R:3:Z:I:1
H        11.57520290       6.64204173      13.10395553         0.00000000       0.00000000       0.00000000          1
H        11.79768000       3.36148731      11.58114280         0.00000000       0.00000000       0.00000000          1