6
pbc=[F, F, F] list_num_par=6 energy=-1.26974174 iter=20000 frozen=false Lattice="15.00000000 0.00000000 0.00000000 0.00000000 15.00000000 0.00000000 0.00000000 0.00000000 15.00000000" energy_frozen_part=0.00000000 Properties=species:S:1:pos:R:3:velocities:R:3:Z:I:1
H         5.98620895       3.99740757      11.27549328         0.00000000       0.00000000       0.00000000          1
H         6.40735519       4.98980887      13.85270408         0.00000000       0.00000000       0.00000000          1
H         8.79373554       3.54688237      14.01836676         0.00000000       0.00000000       0.00000000          1
H         8.37259045       2.55448416      11.44115315         0.00000000       0.00000000       0.00000000          1
H         8.37285481       5.31120590      11.89367607         0.00000000       0.00000000       0.00000000          1
H         6.40708888       2.23308830      13.40018740         0.00000000       0.00000000       0.00000000          1
6
pbc=[F, F, F] list_num_par=6 energy=-1.26974174 iter=20000 frozen=false Lattice="15.00000000 0.00000000 0.00000000 0.00000000 15.00000000 0.00000000 0.00000000 0.00000000 15.00000000" energy_frozen_part=0.00000000 Properties=species:S:1:pos:R:3:velocities:R:3:Z:I:1
H         5.98706593       3.99663306      11.27527800         0.00000000       0.00000000       0.00000000          1
H         6.40740930       4.98864189      13.85277558         0.00000000       0.00000000       0.00000000          1
H         8.79431435       3.54659758      14.01852376         0.00000000       0.00000000       0.00000000          1
H         8.37397362       2.55459055      11.44102034         0.00000000       0.00000000       0.00000000          1
H         8.37310002       5.31121384      11.89414314         0.00000000       0.00000000       0.00000000          1
H         6.40827949       2.23201440      13.39966035         0.00000000       0.00000000       0.00000000          1
6
pbc=[F, F, F] list_num_par=6 energy=-1.26974174 iter=20000 frozen=false Lattice="15.00000000 0.00000000 0.00000000 0.00000000 15.00000000 0.00000000 0.00000000 0.00000000 15.00000000" energy_frozen_part=0.00000000 Properties=species:S:1:pos:R:3:velocities:R:3:Z:I:1
H         5.98714079       3.99670377      11.27516174         0.00000000       0.00000000       0.00000000          1
H         6.40747458       4.98873085      13.85266071         0.00000000       0.00000000       0.00000000          1
H         8.79431310       3.54658884      14.01846511         0.00000000       0.00000000       0.00000000          1
H         8.37398033       2.55456548      11.44096827         0.00000000       0.00000000       0.00000000          1
H         8.37321679       5.31119349      11.89404981         0.00000000       0.00000000       0.00000000          1
H         6.40823813       2.23209557      13.39957606         0.00000000       0.00000000       0.00000000          1
6
pbc=[F, F, F] list_num_par=6 energy=-1.26974174 iter=20000 frozen=false Lattice="15.00000000 0.00000000 0.00000000 0.00000000 15.00000000 0.00000000 0.00000000 0.00000000 15.00000000" energy_frozen_part=0.00000000 Properties=species:S:1:pos:R:3:velocities:R:3:Z:I:1
H         5.97137488       3.99766199      11.25919811         0.00000000       0.00000000       0.00000000          1
H         6.39023376       4.99338947      13.83551184         0.00000000       0.00000000       0.00000000          1
H         8.78778055       3.56854798      13.99639543         0.00000000       0.00000000       0.00000000          1
H         8.36891585       2.57282489      11.42009196         0.00000000       0.00000000       0.00000000          1
H         8.34927025       5.32949738      11.87247856         0.00000000       0.00000000       0.00000000          1
H         6.40987992       2.23671576      13.38312821         0.00000000       0.00000000       0.00000000          1
6
pbc=[F, F, F] list_num_par=6 energy=-1.26974174 iter=20000 frozen=false Lattice="15.00000000 0.00000000 0.00000000 0.00000000 15.00000000 0.00000000 0.00000000 0.00000000 15.00000000" energy_frozen_part=0.00000000 Properties=species:S:1:pos:R:3:velocities:R:3:Z:I:1
H         5.98620923       3.99739750      11.27550553         0.00000000       0.00000000       0.00000000          1
H         6.40735411       4.98980804      13.85272358         0.00000000       0.00000000       0.00000000          1
H         8.79373337       3.54688272      14.01838473         0.00000000       0.00000000       0.00000000          1
H         8.37259295       2.55447819      11.44117226         0.00000000       0.00000000       0.00000000          1
H         8.37285528       5.31119932      11.89369577         0.00000000       0.00000000       0.00000000          1
H         6.40708818       2.23308924      13.40020354         0.00000000       0.00000000       0.00000000          1
6
pbc=[F, F, F] list_num_par=6 energy=-1.26974174 iter=20000 frozen=false Lattice="15.00000000 0.00000000 0.00000000 0.00000000 15.00000000 0.00000000 0.00000000 0.00000000 15.00000000" energy_frozen_part=0.00000000 Properties=species:S:1:pos:R:3:velocities:R:3:Z:I:1
H         5.98874279       3.99896032      11.27512382         0.00000000       0.00000000       0.00000000          1
H         6.41166999       4.99343223      13.85125439         0.00000000       0.00000000       0.00000000          1
H         8.79672226       3.54838669      14.01754248         0.00000000       0.00000000       0.00000000          1
H         8.37379562       2.55391769      11.44141369         0.00000000       0.00000000       0.00000000          1
H         8.37684116       5.31106966      11.89129058         0.00000000       0.00000000       0.00000000          1
H         6.40862243       2.23627877      13.40137484         0.00000000       0.00000000       0.00000000          1
6
pbc=[F, F, F] list_num_par=6 energy=-1.26974174 iter=20000 frozen=false Lattice="15.00000000 0.00000000 0.00000000 0.00000000 15.00000000 0.00000000 0.00000000 0.00000000 15.00000000" energy_frozen_part=0.00000000 Properties=species:S:1:pos:R:3:velocities:R:3:Z:I:1
H         5.98625511       3.99751654      11.27545811         0.00000000       0.00000000       0.00000000          1
H         6.40737806       4.98986788      13.85270771         0.00000000       0.00000000       0.00000000          1
H         8.79370653       3.54685841      14.01839832         0.00000000       0.00000000       0.00000000          1
H         8.37257738       2.55449657      11.44115759         0.00000000       0.00000000       0.00000000          1
H         8.37292906       5.31121138      11.89371651         0.00000000       0.00000000       0.00000000          1
H         6.40702739       2.23315580      13.40014224         0.00000000       0.00000000       0.00000000          1
6
pbc=[F, F, F] list_num_par=6 energy=-1.26974174 iter=20000 frozen=false Lattice="15.00000000 0.00000000 0.00000000 0.00000000 15.00000000 0.00000000 0.00000000 0.00000000 15.00000000" energy_frozen_part=0.00000000 Properties=species:S:1:pos:R:3:velocities:R:3:Z:I:1
H         5.98624840       3.99743694      11.27550393         0.00000000       0.00000000       0.00000000          1
H         6.40740610       4.98985614      13.85271195         0.00000000       0.00000000       0.00000000          1
H         8.79376214       3.54688675      14.01839471         0.00000000       0.00000000       0.00000000          1
H         8.37260005       2.55446973      11.44118789         0.00000000       0.00000000       0.00000000          1
H         8.37292248       5.31118869      11.89368617         0.00000000       0.00000000       0.00000000          1
H         6.40709257       2.23313189      13.40022131         0.00000000       0.00000000       0.00000000          1
6
pbc=[F, F, F] list_num_par=6 energy=-1.26974174 iter=20000 frozen=false Lattice="15.00000000 0.00000000 0.00000000 0.00000000 15.00000000 0.00000000 0.00000000 0.00000000 15.00000000" energy_frozen_part=0.00000000 Properties=species:S:1:pos:R:3:velocities:R:3:Z:I:1
H         5.98619921       3.99746204      11.27553105         0.00000000       0.00000000       0.00000000          1
H         6.40740255       4.98990001      13.85272658         0.00000000       0.00000000       0.00000000          1
H         8.79372146       3.54688653      14.01840397         0.00000000       0.00000000       0.00000000          1
H         8.37253125       2.55445322      11.44120529         0.00000000       0.00000000       0.00000000          1
H         8.37289573       5.31117865      11.89367772         0.00000000       0.00000000       0.00000000          1
H         6.40702702       2.23316500      13.40025333         0.00000000       0.00000000       0.00000000          1
6
pbc=[F, F, F] list_num_par=6 energy=-1.26974174 iter=20000 frozen=false Lattice="15.00000000 0.00000000 0.00000000 0.00000000 15.00000000 0.00000000 0.00000000 0.00000000 15.00000000" energy_frozen_part=0.00000000 Properties=species:S:1:pos:R:3:velocities:R:3:Z:I:1
H         5.98794483       3.99886052      11.27666704         0.00000000       0.00000000       0.00000000          1
H         6.41166909       4.99294962      13.85281508         0.00000000       0.00000000       0.00000000          1
H         8.79724168       3.54860340      14.01777846         0.00000000       0.00000000       0.00000000          1
H         8.37351000       2.55452612      11.44162731         0.00000000       0.00000000       0.00000000          1
H         8.37590103       5.31158765      11.89206592         0.00000000       0.00000000       0.00000000          1
H         6.40928474       2.23588717      13.40238316         0.00000000       0.00000000       0.00000000          1
6
pbc=[F, F, F] list_num_par=6 energy=-1.26974174 iter=20000 frozen=false Lattice="15.00000000 0.00000000 0.00000000 0.00000000 15.00000000 0.00000000 0.00000000 0.00000000 15.00000000" energy_frozen_part=0.00000000 Properties=species:S:1:pos:R:3:velocities:R:3:Z:I:1
H         5.98625715       3.99738495      11.27550848         0.00000000       0.00000000       0.00000000          1
H         6.40736978       4.98979452      13.85272810         0.00000000       0.00000000       0.00000000          1
H         8.79376209       3.54689287      14.01841225         0.00000000       0.00000000       0.00000000          1
H         8.37264988       2.55447638      11.44119012         0.00000000       0.00000000       0.00000000          1
H         8.37288563       5.31120052      11.89371447         0.00000000       0.00000000       0.00000000          1
H         6.40713226       2.23306963      13.40020241         0.00000000       0.00000000       0.00000000          1
6
pbc=[F, F, F] list_num_par=6 energy=-1.26974174 iter=20000 frozen=false Lattice="15.00000000 0.00000000 0.00000000 0.00000000 15.00000000 0.00000000 0.00000000 0.00000000 15.00000000" energy_frozen_part=0.00000000 Properties=species:S:1:pos:R:3:velocities:R:3:Z:I:1
H         5.98793278       3.99886767      11.27667897         0.00000000       0.00000000       0.00000000          1
H         6.41167109       4.99294441      13.85282338         0.00000000       0.00000000       0.00000000          1
H         8.79724117       3.54860468      14.01777611         0.00000000       0.00000000       0.00000000          1
H         8.37350655       2.55452498      11.44162242         0.00000000       0.00000000       0.00000000          1
H         8.37589474       5.31158815      11.89206924         0.00000000       0.00000000       0.00000000          1
H         6.40928812       2.23587920      13.40238168         0.00000000       0.00000000       0.00000000          1
6
pbc=[F, F, F] list_num_par=6 energy=-1.26974174 iter=20000 frozen=false Lattice="15.00000000 0.00000000 0.00000000 0.00000000 15.00000000 0.00000000 0.00000000 0.00000000 15.00000000" energy_frozen_part=0.00000000 Properties=species:S:1:pos:R:3:velocities:R:3:Z:I:1
H         5.98622912       3.99739232      11.27547996         0.00000000       0.00000000       0.00000000          1
H         6.40734698       4.98982960      13.85268637         0.00000000       0.00000000       0.00000000          1
H         8.79372411       3.54691250      14.01840202         0.00000000       0.00000000       0.00000000          1
H         8.37260775       2.55446909      11.44118904         0.00000000       0.00000000       0.00000000          1
H         8.37286354       5.31119987      11.89366812         0.00000000       0.00000000       0.00000000          1
H         6.40708757       2.23310385      13.40020539         0.00000000       0.00000000       0.00000000          1
6
pbc=[F, F, F] list_num_par=6 energy=-1.26974174 iter=20000 frozen=false Lattice="15.00000000 0.00000000 0.00000000 0.00000000 15.00000000 0.00000000 0.00000000 0.00000000 15.00000000" energy_frozen_part=0.00000000 Properties=species:S:1:pos:R:3:velocities:R:3:Z:I:1
H         5.97135628       3.99766270      11.25921103         0.00000000       0.00000000       0.00000000          1
H         6.39022472       4.99338010      13.83552229         0.00000000       0.00000000       0.00000000          1
H         8.78777986       3.56855109      13.99640074         0.00000000       0.00000000       0.00000000          1
H         8.36890715       2.57282959      11.42009561         0.00000000       0.00000000       0.00000000          1
H         8.34925782       5.32949809      11.87248078         0.00000000       0.00000000       0.00000000          1
H         6.40987962       2.23671204      13.38312894         0.00000000       0.00000000       0.00000000          1
6
pbc=[F, F, F] list_num_par=6 energy=-1.26974174 iter=20000 frozen=false Lattice="15.00000000 0.00000000 0.00000000 0.00000000 15.00000000 0.00000000 0.00000000 0.00000000 15.00000000" energy_frozen_part=0.00000000 Properties=species:S:1:pos:R:3:velocities:R:3:Z:I:1
H         5.98872325       3.99893177      11.27511364         0.00000000       0.00000000       0.00000000          1
H         6.41162374       4.99343486      13.85124041         0.00000000       0.00000000       0.00000000          1
H         8.79669882       3.54842576      14.01753144         0.00000000       0.00000000       0.00000000          1
H         8.37380022       2.55393078      11.44141192         0.00000000       0.00000000       0.00000000          1
H         8.37679235       5.31108571      11.89126420         0.00000000       0.00000000       0.00000000          1
H         6.40862469       2.23627448      13.40138204         0.00000000       0.00000000       0.00000000          1
6
pbc=[F, F, F] list_num_par=6 energy=-1.26974174 iter=20000 frozen=false Lattice="15.00000000 0.00000000 0.00000000 0.00000000 15.00000000 0.00000000 0.00000000 0.00000000 15.00000000" energy_frozen_part=0.00000000 Properties=species:S:1:pos:R:3:velocities:R:3:Z:I:1
H         5.98624175       3.99753778      11.27547151         0.00000000       0.00000000       0.00000000          1
H         6.40739031       4.98988701      13.85270619         0.00000000       0.00000000       0.00000000          1
H         8.79369989       3.54686308      14.01838444         0.00000000       0.00000000       0.00000000          1
H         8.37255558       2.55450802      11.44114395         0.00000000       0.00000000       0.00000000          1
H         8.37293195       5.31122364      11.89370729         0.00000000       0.00000000       0.00000000          1
H         6.40701712       2.23317058      13.40014772         0.00000000       0.00000000       0.00000000          1
6
pbc=[F, F, F] list_num_par=6 energy=-1.26974174 iter=20000 frozen=false Lattice="15.00000000 0.00000000 0.00000000 0.00000000 15.00000000 0.00000000 0.00000000 0.00000000 15.00000000" energy_frozen_part=0.00000000 Properties=species:S:1:pos:R:3:velocities:R:3:Z:I:1
H         5.98624301       3.99743415      11.27551245         0.00000000       0.00000000       0.00000000          1
H         6.40741389       4.98985881      13.85272001         0.00000000       0.00000000       0.00000000          1
H         8.79376498       3.54689267      14.01840340         0.00000000       0.00000000       0.00000000          1
H         8.37259854       2.55446673      11.44119508         0.00000000       0.00000000       0.00000000          1
H         8.37291408       5.31119234      11.89368920         0.00000000       0.00000000       0.00000000          1
H         6.40709490       2.23313730      13.40022420         0.00000000       0.00000000       0.00000000          1
6
pbc=[F, F, F] list_num_par=6 energy=-1.26974174 iter=20000 frozen=false Lattice="15.00000000 0.00000000 0.00000000 0.00000000 15.00000000 0.00000000 0.00000000 0.00000000 15.00000000" energy_frozen_part=0.00000000 Properties=species:S:1:pos:R:3:velocities:R:3:Z:I:1
H         5.98714544       3.99669485      11.27515732         0.00000000       0.00000000       0.00000000          1
H         6.40746130       4.98870936      13.85265848         0.00000000       0.00000000       0.00000000          1
H         8.79430908       3.54658506      14.01847393         0.00000000       0.00000000       0.00000000          1
H         8.37399642       2.55457237      11.44097335         0.00000000       0.00000000       0.00000000          1
H         8.37321416       5.31119364      11.89406150         0.00000000       0.00000000       0.00000000          1
H         6.40823546       2.23208284      13.39956222         0.00000000       0.00000000       0.00000000          1
6
pbc=[F, F, F] list_num_par=6 energy=-1.26974174 iter=20000 frozen=false Lattice="15.00000000 0.00000000 0.00000000 0.00000000 15.00000000 0.00000000 0.00000000 0.00000000 15.00000000" energy_frozen_part=0.00000000 Properties=species:S:1:pos:R:3:velocities:R:3:Z:I:1
H         5.98624488       3.99744151      11.27550671         0.00000000       0.00000000       0.00000000          1
H         6.40740844       4.98984561      13.85272394         0.00000000       0.00000000       0.00000000          1
H         8.79375401       3.54686785      14.01839723         0.00000000       0.00000000       0.00000000          1
H         8.37259062       2.55445940      11.44117813         0.00000000       0.00000000       0.00000000          1
H         8.37292142       5.31118713      11.89369052         0.00000000       0.00000000       0.00000000          1
H         6.40707974       2.23312592      13.40021263         0.00000000       0.00000000       0.00000000          1
6
pbc=[F, F, F] list_num_par=6 energy=-1.26974174 iter=20000 frozen=false Lattice="15.00000000 0.00000000 0.00000000 0.00000000 15.00000000 0.00000000 0.00000000 0.00000000 15.00000000" energy_frozen_part=0.00000000 Properties=species:S:1:pos:R:3:velocities:R:3:Z:I:1
H         5.98702342       3.99674328      11.27522331         0.00000000       0.00000000       0.00000000          1
H         6.40752376       4.98876773      13.85269955         0.00000000       0.00000000       0.00000000          1
H         8.79433525       3.54656419      14.01838666         0.00000000       0.00000000       0.00000000          1
H         8.37383675       2.55454495      11.44091371         0.00000000       0.00000000       0.00000000          1
H         8.37317074       5.31117680      11.89398956         0.00000000       0.00000000       0.00000000          1
H         6.40818135       2.23214153      13.39962308         0.00000000       0.00000000       0.00000000          1
6
pbc=[F, F, F] list_num_par=6 energy=-1.26974174 iter=20000 frozen=false Lattice="15.00000000 0.00000000 0.00000000 0.00000000 15.00000000 0.00000000 0.00000000 0.00000000 15.00000000" energy_frozen_part=0.00000000 Properties=species:S:1:pos:R:3:velocities:R:3:Z:I:1
H         5.98624336       3.99744041      11.27551488         0.00000000       0.00000000       0.00000000          1
H         6.40740775       4.98985250      13.85272706         0.00000000       0.00000000       0.00000000          1
H         8.79375457       3.54688019      14.01841034         0.00000000       0.00000000       0.00000000          1
H         8.37259292       2.55446038      11.44119403         0.00000000       0.00000000       0.00000000          1
H         8.37291379       5.31118284      11.89369284         0.00000000       0.00000000       0.00000000          1
H         6.40708532       2.23313467      13.40022634         0.00000000       0.00000000       0.00000000          1
6
pbc=[F, F, F] list_num_par=6 energy=-1.26974174 iter=20000 frozen=false Lattice="15.00000000 0.00000000 0.00000000 0.00000000 15.00000000 0.00000000 0.00000000 0.00000000 15.00000000" energy_frozen_part=0.00000000 Properties=species:S:1:pos:R:3:velocities:R:3:Z:I:1
H         5.98614862       3.99741737      11.27553683         0.00000000       0.00000000       0.00000000          1
H         6.40737352       4.98984351      13.85273369         0.00000000       0.00000000       0.00000000          1
H         8.79372488       3.54686423      14.01835942         0.00000000       0.00000000       0.00000000          1
H         8.37249490       2.55444320      11.44115899         0.00000000       0.00000000       0.00000000          1
H         8.37283407       5.31116571      11.89365159         0.00000000       0.00000000       0.00000000          1
H         6.40702902       2.23311928      13.40024143         0.00000000       0.00000000       0.00000000          1
6
pbc=[F, F, F] list_num_par=6 energy=-1.26974174 iter=20000 frozen=false Lattice="15.00000000 0.00000000 0.00000000 0.00000000 15.00000000 0.00000000 0.00000000 0.00000000 15.00000000" energy_frozen_part=0.00000000 Properties=species:S:1:pos:R:3:velocities:R:3:Z:I:1
H         5.98714035       3.99668237      11.27515640         0.00000000       0.00000000       0.00000000          1
H         6.40745416       4.98871636      13.85265198         0.00000000       0.00000000       0.00000000          1
H         8.79430448       3.54659102      14.01846966         0.00000000       0.00000000       0.00000000          1
H         8.37399580       2.55456204      11.44097077         0.00000000       0.00000000       0.00000000          1
H         8.37320403       5.31119421      11.89404807         0.00000000       0.00000000       0.00000000          1
H         6.40824102       2.23208437      13.39956581         0.00000000       0.00000000       0.00000000          1
6
pbc=[F, F, F] list_num_par=6 energy=-1.26974174 iter=20000 frozen=false Lattice="15.00000000 0.00000000 0.00000000 0.00000000 15.00000000 0.00000000 0.00000000 0.00000000 15.00000000" energy_frozen_part=0.00000000 Properties=species:S:1:pos:R:3:velocities:R:3:Z:I:1
H         5.98873902       3.99891237      11.27517197         0.00000000       0.00000000       0.00000000          1
H         6.41162126       4.99334017      13.85133056         0.00000000       0.00000000       0.00000000          1
H         8.79672511       3.54838247      14.01758323         0.00000000       0.00000000       0.00000000          1
H         8.37384577       2.55395721      11.44142554         0.00000000       0.00000000       0.00000000          1
H         8.37678371       5.31109521      11.89136478         0.00000000       0.00000000       0.00000000          1
H         6.40868005       2.23620183      13.40138936         0.00000000       0.00000000       0.00000000          1
6
pbc=[F, F, F] list_num_par=6 energy=-1.26974174 iter=20000 frozen=false Lattice="15.00000000 0.00000000 0.00000000 0.00000000 15.00000000 0.00000000 0.00000000 0.00000000 15.00000000" energy_frozen_part=0.00000000 Properties=species:S:1:pos:R:3:velocities:R:3:Z:I:1
H         5.98793383       3.99882134      11.27667441         0.00000000       0.00000000       0.00000000          1
H         6.41164686       4.99298193      13.85279937         0.00000000       0.00000000       0.00000000          1
H         8.79724192       3.54868134      14.01779359         0.00000000       0.00000000       0.00000000          1
H         8.37352371       2.55452604      11.44167408         0.00000000       0.00000000       0.00000000          1
H         8.37587298       5.31160313      11.89203555         0.00000000       0.00000000       0.00000000          1
H         6.40930093       2.23591156      13.40243955         0.00000000       0.00000000       0.00000000          1
6
pbc=[F, F, F] list_num_par=6 energy=-1.26974174 iter=20000 frozen=false Lattice="15.00000000 0.00000000 0.00000000 0.00000000 15.00000000 0.00000000 0.00000000 0.00000000 15.00000000" energy_frozen_part=0.00000000 Properties=species:S:1:pos:R:3:velocities:R:3:Z:I:1
H         5.98623874       3.99754390      11.27546439         0.00000000       0.00000000       0.00000000          1
H         6.40739031       4.98988701      13.85270619         0.00000000       0.00000000       0.00000000          1
H         8.79369927       3.54685672      14.01838189         0.00000000       0.00000000       0.00000000          1
H         8.37255447       2.55450715      11.44114418         0.00000000       0.00000000       0.00000000          1
H         8.37293085       5.31122609      11.89370923         0.00000000       0.00000000       0.00000000          1
H         6.40700356       2.23317911      13.40013871         0.00000000       0.00000000       0.00000000          1
6
pbc=[F, F, F] list_num_par=6 energy=-1.26974174 iter=20000 frozen=false Lattice="15.00000000 0.00000000 0.00000000 0.00000000 15.00000000 0.00000000 0.00000000 0.00000000 15.00000000" energy_frozen_part=0.00000000 Properties=species:S:1:pos:R:3:velocities:R:3:Z:I:1
H         5.98620224       3.99746790      11.27553062         0.00000000       0.00000000       0.00000000          1
H         6.40738960       4.98990013      13.85272395         0.00000000       0.00000000       0.00000000          1
H         8.79371377       3.54689194      14.01840744         0.00000000       0.00000000       0.00000000          1
H         8.37253140       2.55446360      11.44120737         0.00000000       0.00000000       0.00000000          1
H         8.37289641       5.31119126      11.89368496         0.00000000       0.00000000       0.00000000          1
H         6.40702554       2.23316403      13.40024921         0.00000000       0.00000000       0.00000000          1
6
pbc=[F, F, F] list_num_par=6 energy=-1.26974174 iter=20000 frozen=false Lattice="15.00000000 0.00000000 0.00000000 0.00000000 15.00000000 0.00000000 0.00000000 0.00000000 15.00000000" energy_frozen_part=0.00000000 Properties=species:S:1:pos:R:3:velocities:R:3:Z:I:1
H         5.98872171       3.99894168      11.27511576         0.00000000       0.00000000       0.00000000          1
H         6.41162221       4.99345121      13.85123691         0.00000000       0.00000000       0.00000000          1
H         8.79670026       3.54844561      14.01754298         0.00000000       0.00000000       0.00000000          1
H         8.37380567       2.55394385      11.44142506         0.00000000       0.00000000       0.00000000          1
H         8.37679597       5.31109378      11.89127124         0.00000000       0.00000000       0.00000000          1
H         6.40863098       2.23629225      13.40139112         0.00000000       0.00000000       0.00000000          1
6
pbc=[F, F, F] list_num_par=6 energy=-1.26974174 iter=20000 frozen=false Lattice="15.00000000 0.00000000 0.00000000 0.00000000 15.00000000 0.00000000 0.00000000 0.00000000 15.00000000" energy_frozen_part=0.00000000 Properties=species:S:1:pos:R:3:velocities:R:3:Z:I:1
H         5.98619971       3.99745848      11.27552894         0.00000000       0.00000000       0.00000000          1
H         6.40739829       4.98989665      13.85272982         0.00000000       0.00000000       0.00000000          1
H         8.79373382       3.54689192      14.01840221         0.00000000       0.00000000       0.00000000          1
H         8.37252707       2.55445416      11.44119954         0.00000000       0.00000000       0.00000000          1
H         8.37289259       5.31118402      11.89367730         0.00000000       0.00000000       0.00000000          1
H         6.40703775       2.23317111      13.40025264         0.00000000       0.00000000       0.00000000          1
6
pbc=[F, F, F] list_num_par=6 energy=-1.26974174 iter=20000 frozen=false Lattice="15.00000000 0.00000000 0.00000000 0.00000000 15.00000000 0.00000000 0.00000000 0.00000000 15.00000000" energy_frozen_part=0.00000000 Properties=species:S:1:pos:R:3:velocities:R:3:Z:I:1
H         5.98620835       3.99746345      11.27552089         0.00000000       0.00000000       0.00000000          1
H         6.40739577       4.98990058      13.85272062         0.00000000       0.00000000       0.00000000          1
H         8.79371609       3.54688417      14.01840943         0.00000000       0.00000000       0.00000000          1
H         8.37253147       2.55444487      11.44120437         0.00000000       0.00000000       0.00000000          1
H         8.37291059       5.31117154      11.89368209         0.00000000       0.00000000       0.00000000          1
H         6.40702114       2.23316807      13.40024238         0.00000000       0.00000000       0.00000000          1
6
pbc=[F, F, F] list_num_par=6 energy=-1.26974174 iter=20000 frozen=false Lattice="15.00000000 0.00000000 0.00000000 0.00000000 15.00000000 0.00000000 0.00000000 0.00000000 15.00000000" energy_frozen_part=0.00000000 Properties=species:S:1:pos:R:3:velocities:R:3:Z:I:1
H         5.98621595       3.99739320      11.27550259         0.00000000       0.00000000       0.00000000          1
H         6.40735269       4.98979970      13.85272580         0.00000000       0.00000000       0.00000000          1