6
pbc=[F, F, F] list_num_par=6 frozen=false iter=20000 energy=-1.26974174 Lattice="15.00000000 0.00000000 0.00000000 0.00000000 15.00000000 0.00000000 0.00000000 0.00000000 15.00000000" energy_frozen_part=0.00000000 Properties=species:S:1:pos:R:3:velocities:R:3:Z:I:1
H        13.12482734       7.04766716       8.19610436         0.00000000       0.00000000       0.00000000          1
H        10.48975668       7.86513110       8.63479019         0.00000000       0.00000000       0.00000000          1
H        12.14106602       7.25113396      10.80284241         0.00000000       0.00000000       0.00000000          1
H        12.65829952       4.73829070       9.69723793         0.00000000       0.00000000       0.00000000          1
H        11.00699823       5.35229622       7.52917574         0.00000000       0.00000000       0.00000000          1
H        10.02323552       5.55575588      10.13592345         0.00000000       0.00000000       0.00000000          1
6
pbc=[F, F, F] list_num_par=6 frozen=false iter=20000 energy=-1.26974174 Lattice="15.00000000 0.00000000 0.00000000 0.00000000 15.00000000 0.00000000 0.00000000 0.00000000 15.00000000" energy_frozen_part=0.00000000 Properties=species:S:1:pos:R:3:velocities:R:3:Z:I:1
H        13.12485032       7.04791605       8.19642182         0.00000000       0.00000000       0.00000000          1
H        10.48984256       7.86501377       8.63616611         0.00000000       0.00000000       0.00000000          1
H        12.14194825       7.25073329      10.80353887         0.00000000       0.00000000       0.00000000          1
H        12.65908854       4.73817336       9.69723524         0.00000000       0.00000000       0.00000000          1
H        11.00697490       5.35245529       7.52986342         0.00000000       0.00000000       0.00000000          1
H        10.02408091       5.55526192      10.13697924         0.00000000       0.00000000       0.00000000          1
6
pbc=[F, F, F] list_num_par=6 frozen=false iter=20000 energy=-1.26974174 Lattice="15.00000000 0.00000000 0.00000000 0.00000000 15.00000000 0.00000000 0.00000000 0.00000000 15.00000000" energy_frozen_part=0.00000000 Properties=species:S:1:pos:R:3:velocities:R:3:Z:I:1
H        13.04407351       7.16138615       8.18331134         0.00000000       0.00000000       0.00000000          1
H        10.39987078       7.87624467       8.73237296         0.00000000       0.00000000       0.00000000          1
H        12.16585197       7.33922088      10.82932273         0.00000000       0.00000000       0.00000000          1
H        12.73457853       4.84312779       9.71112559         0.00000000       0.00000000       0.00000000          1
H        10.96859953       5.38015399       7.61417781         0.00000000       0.00000000       0.00000000          1
H        10.09038359       5.55798892      10.26018947         0.00000000       0.00000000       0.00000000          1
6
pbc=[F, F, F] list_num_par=6 frozen=false iter=20000 energy=-1.26974174 Lattice="15.00000000 0.00000000 0.00000000 0.00000000 15.00000000 0.00000000 0.00000000 0.00000000 15.00000000" energy_frozen_part=0.00000000 Properties=species:S:1:pos:R:3:velocities:R:3:Z:I:1
H        13.12492309       7.04784974       8.19641937         0.00000000       0.00000000       0.00000000          1
H        10.48998576       7.86512096       8.63621290         0.00000000       0.00000000       0.00000000          1
H        12.14207905       7.25070441      10.80355331         0.00000000       0.00000000       0.00000000          1
H        12.65902743       4.73811823       9.69721884         0.00000000       0.00000000       0.00000000          1
H        11.00692832       5.35253372       7.52987913         0.00000000       0.00000000       0.00000000          1
H        10.02408312       5.55539439      10.13701199         0.00000000       0.00000000       0.00000000          1
6
pbc=[F, F, F] list_num_par=6 frozen=false iter=20000 energy=-1.26974174 Lattice="15.00000000 0.00000000 0.00000000 0.00000000 15.00000000 0.00000000 0.00000000 0.00000000 15.00000000" energy_frozen_part=0.00000000 Properties=species:S:1:pos:R:3:velocities:R:3:Z:I:1
H        13.04409993       7.16137004       8.18331788         0.00000000       0.00000000       0.00000000          1
H        10.39989868       7.87624772       8.73235235         0.00000000       0.00000000       0.00000000          1
H        12.16585130       7.33924557      10.82932392         0.00000000       0.00000000       0.00000000          1
H        12.73458089       4.84314664       9.71115984         0.00000000       0.00000000       0.00000000          1
H        10.96861937       5.38014407       7.61418712         0.00000000       0.00000000       0.00000000          1
H        10.09037629       5.55801258      10.26018722         0.00000000       0.00000000       0.00000000          1
6
pbc=[F, F, F] list_num_par=6 frozen=false iter=20000 energy=-1.26974174 Lattice="15.00000000 0.00000000 0.00000000 0.00000000 15.00000000 0.00000000 0.00000000 0.00000000 15.00000000" energy_frozen_part=0.00000000 Properties=species:S:1:pos:R:3:velocities:R:3:Z:I:1
H        13.04409079       7.16137710       8.18334121         0.00000000       0.00000000       0.00000000          1
H        10.39989125       7.87625938       8.73238915         0.00000000       0.00000000       0.00000000          1
H        12.16586037       7.33921034      10.82934940         0.00000000       0.00000000       0.00000000          1
H        12.73456800       4.84311801       9.71113999         0.00000000       0.00000000       0.00000000          1
H        10.96860492       5.38016479       7.61418242         0.00000000       0.00000000       0.00000000          1
H        10.09037101       5.55800280      10.26019642         0.00000000       0.00000000       0.00000000          1
6
pbc=[F, F, F] list_num_par=6 frozen=false iter=20000 energy=-1.26974174 Lattice="15.00000000 0.00000000 0.00000000 0.00000000 15.00000000 0.00000000 0.00000000 0.00000000 15.00000000" energy_frozen_part=0.00000000 Properties=species:S:1:pos:R:3:velocities:R:3:Z:I:1
H        13.12492332       7.04779521       8.19642847         0.00000000       0.00000000       0.00000000          1
H        10.48998811       7.86509111       8.63624380         0.00000000       0.00000000       0.00000000          1
H        12.14208431       7.25064614      10.80357003         0.00000000       0.00000000       0.00000000          1
H        12.65899547       4.73806234       9.69720657         0.00000000       0.00000000       0.00000000          1
H        11.00690137       5.35251510       7.52987520         0.00000000       0.00000000       0.00000000          1
H        10.02406011       5.55535980      10.13701236         0.00000000       0.00000000       0.00000000          1
6
pbc=[F, F, F] list_num_par=6 frozen=false iter=20000 energy=-1.26974174 Lattice="15.00000000 0.00000000 0.00000000 0.00000000 15.00000000 0.00000000 0.00000000 0.00000000 15.00000000" energy_frozen_part=0.00000000 Properties=species:S:1:pos:R:3:velocities:R:3:Z:I:1
H        13.12482638       7.04765691       8.19608482         0.00000000       0.00000000       0.00000000          1
H        10.48976423       7.86514157       8.63478863         0.00000000       0.00000000       0.00000000          1
H        12.14109346       7.25114449      10.80282961         0.00000000       0.00000000       0.00000000          1
H        12.65830921       4.73828786       9.69723130         0.00000000       0.00000000       0.00000000          1
H        11.00698456       5.35228584       7.52918775         0.00000000       0.00000000       0.00000000          1
H        10.02324938       5.55577000      10.13593301         0.00000000       0.00000000       0.00000000          1
6
pbc=[F, F, F] list_num_par=6 frozen=false iter=20000 energy=-1.26974174 Lattice="15.00000000 0.00000000 0.00000000 0.00000000 15.00000000 0.00000000 0.00000000 0.00000000 15.00000000" energy_frozen_part=0.00000000 Properties=species:S:1:pos:R:3:velocities:R:3:Z:I:1
H        13.04409782       7.16140715       8.18331046         0.00000000       0.00000000       0.00000000          1
H        10.39990268       7.87627859       8.73237906         0.00000000       0.00000000       0.00000000          1
H        12.16587599       7.33923821      10.82932625         0.00000000       0.00000000       0.00000000          1
H        12.73458802       4.84315147       9.71112466         0.00000000       0.00000000       0.00000000          1
H        10.96861014       5.38019167       7.61417728         0.00000000       0.00000000       0.00000000          1
H        10.09039011       5.55802645      10.26018763         0.00000000       0.00000000       0.00000000          1
6
pbc=[F, F, F] list_num_par=6 frozen=false iter=20000 energy=-1.26974174 Lattice="15.00000000 0.00000000 0.00000000 0.00000000 15.00000000 0.00000000 0.00000000 0.00000000 15.00000000" energy_frozen_part=0.00000000 Properties=species:S:1:pos:R:3:velocities:R:3:Z:I:1
H        13.12483069       7.04766409       8.19610478         0.00000000       0.00000000       0.00000000          1
H        10.48975846       7.86510594       8.63479421         0.00000000       0.00000000       0.00000000          1
H        12.14106843       7.25111592      10.80284787         0.00000000       0.00000000       0.00000000          1
H        12.65832376       4.73827649       9.69722833         0.00000000       0.00000000       0.00000000          1
H        11.00701375       5.35227782       7.52917760         0.00000000       0.00000000       0.00000000          1
H        10.02325080       5.55572286      10.13592077         0.00000000       0.00000000       0.00000000          1
6
pbc=[F, F, F] list_num_par=6 frozen=false iter=20000 energy=-1.26974174 Lattice="15.00000000 0.00000000 0.00000000 0.00000000 15.00000000 0.00000000 0.00000000 0.00000000 15.00000000" energy_frozen_part=0.00000000 Properties=species:S:1:pos:R:3:velocities:R:3:Z:I:1
H        13.04403391       7.16164081       8.18359975         0.00000000       0.00000000       0.00000000          1
H        10.39978956       7.87633938       8.73268198         0.00000000       0.00000000       0.00000000          1
H        12.16578102       7.33926503      10.82961401         0.00000000       0.00000000       0.00000000          1
H        12.73462743       4.84327204       9.71125372         0.00000000       0.00000000       0.00000000          1
H        10.96864703       5.38035671       7.61431382         0.00000000       0.00000000       0.00000000          1
H        10.09039618       5.55797589      10.26033773         0.00000000       0.00000000       0.00000000          1
6
pbc=[F, F, F] list_num_par=6 frozen=false iter=20000 energy=-1.26974174 Lattice="15.00000000 0.00000000 0.00000000 0.00000000 15.00000000 0.00000000 0.00000000 0.00000000 15.00000000" energy_frozen_part=0.00000000 Properties=species:S:1:pos:R:3:velocities:R:3:Z:I:1
H        13.04407221       7.16139535       8.18328813         0.00000000       0.00000000       0.00000000          1
H        10.39987726       7.87623641       8.73238924         0.00000000       0.00000000       0.00000000          1
H        12.16590556       7.33928407      10.82932081         0.00000000       0.00000000       0.00000000          1
H        12.73463960       4.84318145       9.71116429         0.00000000       0.00000000       0.00000000          1
H        10.96861644       5.38012368       7.61423410         0.00000000       0.00000000       0.00000000          1
H        10.09044432       5.55802012      10.26026328         0.00000000       0.00000000       0.00000000          1
6
pbc=[F, F, F] list_num_par=6 frozen=false iter=20000 energy=-1.26974174 Lattice="15.00000000 0.00000000 0.00000000 0.00000000 15.00000000 0.00000000 0.00000000 0.00000000 15.00000000" energy_frozen_part=0.00000000 Properties=species:S:1:pos:R:3:velocities:R:3:Z:I:1
H        13.04412028       7.16138660       8.18334920         0.00000000       0.00000000       0.00000000          1
H        10.39991554       7.87626446       8.73236872         0.00000000       0.00000000       0.00000000          1
H        12.16587156       7.33926704      10.82934165         0.00000000       0.00000000       0.00000000          1
H        12.73459860       4.84315454       9.71118781         0.00000000       0.00000000       0.00000000          1
H        10.96864293       5.38015710       7.61420907         0.00000000       0.00000000       0.00000000          1
H        10.09040105       5.55803704      10.26021459         0.00000000       0.00000000       0.00000000          1
6
pbc=[F, F, F] list_num_par=6 frozen=false iter=20000 energy=-1.26974174 Lattice="15.00000000 0.00000000 0.00000000 0.00000000 15.00000000 0.00000000 0.00000000 0.00000000 15.00000000" energy_frozen_part=0.00000000 Properties=species:S:1:pos:R:3:velocities:R:3:Z:I:1
H        13.12482905       7.04764872       8.19609767         0.00000000       0.00000000       0.00000000          1
H        10.48976247       7.86513851       8.63478564         0.00000000       0.00000000       0.00000000          1
H        12.14107674       7.25113224      10.80284138         0.00000000       0.00000000       0.00000000          1
H        12.65830245       4.73828282       9.69724090         0.00000000       0.00000000       0.00000000          1
H        11.00698770       5.35228963       7.52918452         0.00000000       0.00000000       0.00000000          1
H        10.02323962       5.55576144      10.13593127         0.00000000       0.00000000       0.00000000          1
6
pbc=[F, F, F] list_num_par=6 frozen=false iter=20000 energy=-1.26974174 Lattice="15.00000000 0.00000000 0.00000000 0.00000000 15.00000000 0.00000000 0.00000000 0.00000000 15.00000000" energy_frozen_part=0.00000000 Properties=species:S:1:pos:R:3:velocities:R:3:Z:I:1
H        13.04395509       7.16161451       8.18358525         0.00000000       0.00000000       0.00000000          1
H        10.39971912       7.87630312       8.73267520         0.00000000       0.00000000       0.00000000          1
H        12.16572285       7.33928233      10.82960843         0.00000000       0.00000000       0.00000000          1
H        12.73459341       4.84327813       9.71129407         0.00000000       0.00000000       0.00000000          1
H        10.96859344       5.38029650       7.61435557         0.00000000       0.00000000       0.00000000          1
H        10.09035213       5.55796486      10.26037049         0.00000000       0.00000000       0.00000000          1
6
pbc=[F, F, F] list_num_par=6 frozen=false iter=20000 energy=-1.26974174 Lattice="15.00000000 0.00000000 0.00000000 0.00000000 15.00000000 0.00000000 0.00000000 0.00000000 15.00000000" energy_frozen_part=0.00000000 Properties=species:S:1:pos:R:3:velocities:R:3:Z:I:1
H        13.04398519       7.16164923       8.18355455         0.00000000       0.00000000       0.00000000          1
H        10.39974673       7.87630354       8.73266692         0.00000000       0.00000000       0.00000000          1
H        12.16576588       7.33926686      10.82958499         0.00000000       0.00000000       0.00000000          1
H        12.73464210       4.84328021       9.71122552         0.00000000       0.00000000       0.00000000          1
H        10.96862495       5.38031905       7.61431283         0.00000000       0.00000000       0.00000000          1
H        10.09040003       5.55793649      10.26033950         0.00000000       0.00000000       0.00000000          1
6
pbc=[F, F, F] list_num_par=6 frozen=false iter=20000 energy=-1.26974174 Lattice="15.00000000 0.00000000 0.00000000 0.00000000 15.00000000 0.00000000 0.00000000 0.00000000 15.00000000" energy_frozen_part=0.00000000 Properties=species:S:1:pos:R:3:velocities:R:3:Z:I:1
H        13.04416073       7.16162930       8.18352559         0.00000000       0.00000000       0.00000000          1
H        10.39982991       7.87629710       8.73221757         0.00000000       0.00000000       0.00000000          1
H        12.16561064       7.33960343      10.82942197         0.00000000       0.00000000       0.00000000          1
H        12.73469110       4.84347231       9.71147861         0.00000000       0.00000000       0.00000000          1
H        10.96891235       5.38016786       7.61427777         0.00000000       0.00000000       0.00000000          1
H        10.09036301       5.55813794      10.26017631         0.00000000       0.00000000       0.00000000          1
6
pbc=[F, F, F] list_num_par=6 frozen=false iter=20000 energy=-1.26974174 Lattice="15.00000000 0.00000000 0.00000000 0.00000000 15.00000000 0.00000000 0.00000000 0.00000000 15.00000000" energy_frozen_part=0.00000000 Properties=species:S:1:pos:R:3:velocities:R:3:Z:I:1
H        13.12495284       7.04785159       8.19648118         0.00000000       0.00000000       0.00000000          1
H        10.49000316       7.86514396       8.63622970         0.00000000       0.00000000       0.00000000          1
H        12.14206054       7.25069080      10.80359744         0.00000000       0.00000000       0.00000000          1
H        12.65900263       4.73811436       9.69723952         0.00000000       0.00000000       0.00000000          1
H        11.00695254       5.35256546       7.52987643         0.00000000       0.00000000       0.00000000          1
H        10.02405628       5.55540623      10.13698811         0.00000000       0.00000000       0.00000000          1
6
pbc=[F, F, F] list_num_par=6 frozen=false iter=20000 energy=-1.26974174 Lattice="15.00000000 0.00000000 0.00000000 0.00000000 15.00000000 0.00000000 0.00000000 0.00000000 15.00000000" energy_frozen_part=0.00000000 Properties=species:S:1:pos:R:3:velocities:R:3:Z:I:1
H        13.04402470       7.16157376       8.18362522         0.00000000       0.00000000       0.00000000          1
H        10.39978668       7.87628776       8.73266557         0.00000000       0.00000000       0.00000000          1
H        12.16574799       7.33924581      10.82963177         0.00000000       0.00000000       0.00000000          1
H        12.73460731       4.84323256       9.71132437         0.00000000       0.00000000       0.00000000          1
H        10.96863850       5.38027572       7.61436710         0.00000000       0.00000000       0.00000000          1
H        10.09036530       5.55795444      10.26037536         0.00000000       0.00000000       0.00000000          1
6
pbc=[F, F, F] list_num_par=6 frozen=false iter=20000 energy=-1.26974174 Lattice="15.00000000 0.00000000 0.00000000 0.00000000 15.00000000 0.00000000 0.00000000 0.00000000 15.00000000" energy_frozen_part=0.00000000 Properties=species:S:1:pos:R:3:velocities:R:3:Z:I:1
H        13.12485549       7.04789462       8.19650199         0.00000000       0.00000000       0.00000000          1
H        10.48991039       7.86516019       8.63630244         0.00000000       0.00000000       0.00000000          1
H        12.14199661       7.25069256      10.80363526         0.00000000       0.00000000       0.00000000          1
H        12.65894771       4.73813417       9.69723285         0.00000000       0.00000000       0.00000000          1
H        11.00685451       5.35261185       7.52990212         0.00000000       0.00000000       0.00000000          1
H        10.02400212       5.55539675      10.13703748         0.00000000       0.00000000       0.00000000          1
6
pbc=[F, F, F] list_num_par=6 frozen=false iter=20000 energy=-1.26974174 Lattice="15.00000000 0.00000000 0.00000000 0.00000000 15.00000000 0.00000000 0.00000000 0.00000000 15.00000000" energy_frozen_part=0.00000000 Properties=species:S:1:pos:R:3:velocities:R:3:Z:I:1
H        13.04401932       7.16162841       8.18362233         0.00000000       0.00000000       0.00000000          1
H        10.39978541       7.87634252       8.73270950         0.00000000       0.00000000       0.00000000          1
H        12.16576085       7.33922476      10.82963686         0.00000000       0.00000000       0.00000000          1
H        12.73459440       4.84324200       9.71125418         0.00000000       0.00000000       0.00000000          1
H        10.96862859       5.38036579       7.61432121         0.00000000       0.00000000       0.00000000          1
H        10.09036357       5.55796261      10.26034015         0.00000000       0.00000000       0.00000000          1
6
pbc=[F, F, F] list_num_par=6 frozen=false iter=20000 energy=-1.26974174 Lattice="15.00000000 0.00000000 0.00000000 0.00000000 15.00000000 0.00000000 0.00000000 0.00000000 15.00000000" energy_frozen_part=0.00000000 Properties=species:S:1:pos:R:3:velocities:R:3:Z:I:1
H        13.04395882       7.16159451       8.18360381         0.00000000       0.00000000       0.00000000          1
H        10.39972040       7.87630415       8.73268391         0.00000000       0.00000000       0.00000000          1
H        12.16571492       7.33926534      10.82962089         0.00000000       0.00000000       0.00000000          1
H        12.73456245       4.84325888       9.71131014         0.00000000       0.00000000       0.00000000          1
H        10.96856865       5.38029817       7.61436992         0.00000000       0.00000000       0.00000000          1
H        10.09032874       5.55796341      10.26038258         0.00000000       0.00000000       0.00000000          1
6
pbc=[F, F, F] list_num_par=6 frozen=false iter=20000 energy=-1.26974174 Lattice="15.00000000 0.00000000 0.00000000 0.00000000 15.00000000 0.00000000 0.00000000 0.00000000 15.00000000" energy_frozen_part=0.00000000 Properties=species:S:1:pos:R:3:velocities:R:3:Z:I:1
H        13.12488037       7.04794159       8.19653972         0.00000000       0.00000000       0.00000000          1
H        10.48992730       7.86517981       8.63634799         0.00000000       0.00000000       0.00000000          1
H        12.14199259       7.25065528      10.80367335         0.00000000       0.00000000       0.00000000          1
H        12.65895159       4.73813459       9.69720877         0.00000000       0.00000000       0.00000000          1
H        11.00689055       5.35266438       7.52987892         0.00000000       0.00000000       0.00000000          1
H        10.02399886       5.55537584      10.13700587         0.00000000       0.00000000       0.00000000          1
6
pbc=[F, F, F] list_num_par=6 frozen=false iter=20000 energy=-1.26974174 Lattice="15.00000000 0.00000000 0.00000000 0.00000000 15.00000000 0.00000000 0.00000000 0.00000000 15.00000000" energy_frozen_part=0.00000000 Properties=species:S:1:pos:R:3:velocities:R:3:Z:I:1
H        13.12485056       7.04767651       8.19611188         0.00000000       0.00000000       0.00000000          1
H        10.48978854       7.86516489       8.63480207         0.00000000       0.00000000       0.00000000          1
H        12.14108794       7.25111853      10.80284754         0.00000000       0.00000000       0.00000000          1
H        12.65830082       4.73828045       9.69722323         0.00000000       0.00000000       0.00000000          1
H        11.00700552       5.35232633       7.52917079         0.00000000       0.00000000       0.00000000          1
H        10.02323471       5.55577526      10.13591072         0.00000000       0.00000000       0.00000000          1
6
pbc=[F, F, F] list_num_par=6 frozen=false iter=20000 energy=-1.26974174 Lattice="15.00000000 0.00000000 0.00000000 0.00000000 15.00000000 0.00000000 0.00000000 0.00000000 15.00000000" energy_frozen_part=0.00000000 Properties=species:S:1:pos:R:3:velocities:R:3:Z:I:1
H        13.04398335       7.16162764       8.18359875         0.00000000       0.00000000       0.00000000          1
H        10.39974903       7.87632854       8.73270052         0.00000000       0.00000000       0.00000000          1
H        12.16574127       7.33924452      10.82961674         0.00000000       0.00000000       0.00000000          1
H        12.73459390       4.84325789       9.71125497         0.00000000       0.00000000       0.00000000          1
H        10.96859972       5.38034745       7.61432806         0.00000000       0.00000000       0.00000000          1
H        10.09035489       5.55795571      10.26034947         0.00000000       0.00000000       0.00000000          1
6
pbc=[F, F, F] list_num_par=6 frozen=false iter=20000 energy=-1.26974174 Lattice="15.00000000 0.00000000 0.00000000 0.00000000 15.00000000 0.00000000 0.00000000 0.00000000 15.00000000" energy_frozen_part=0.00000000 Properties=species:S:1:pos:R:3:velocities:R:3:Z:I:1
H        13.12483430       7.04765098       8.19609642         0.00000000       0.00000000       0.00000000          1
H        10.48976660       7.86513070       8.63478126         0.00000000       0.00000000       0.00000000          1
H        12.14107191       7.25113387      10.80284112         0.00000000       0.00000000       0.00000000          1
H        12.65830128       4.73828709       9.69725087         0.00000000       0.00000000       0.00000000          1
H        11.00699304       5.35227709       7.52918833         0.00000000       0.00000000       0.00000000          1
H        10.02323770       5.55575817      10.13592677         0.00000000       0.00000000       0.00000000          1
6
pbc=[F, F, F] list_num_par=6 frozen=false iter=20000 energy=-1.26974174 Lattice="15.00000000 0.00000000 0.00000000 0.00000000 15.00000000 0.00000000 0.00000000 0.00000000 15.00000000" energy_frozen_part=0.00000000 Properties=species:S:1:pos:R:3:velocities:R:3:Z:I:1
H        13.04411553       7.16138560       8.18334970         0.00000000       0.00000000       0.00000000          1
H        10.39990972       7.87625843       8.73236618         0.00000000       0.00000000       0.00000000          1
H        12.16586395       7.33926154      10.82934879         0.00000000       0.00000000       0.00000000          1
H        12.73459662       4.84315265       9.71119307         0.00000000       0.00000000       0.00000000          1
H        10.96864014       5.38015082       7.61421546         0.00000000       0.00000000       0.00000000          1
H        10.09039536       5.55802804      10.26021019         0.00000000       0.00000000       0.00000000          1
6
pbc=[F, F, F] list_num_par=6 frozen=false iter=20000 energy=-1.26974174 Lattice="15.00000000 0.00000000 0.00000000 0.00000000 15.00000000 0.00000000 0.00000000 0.00000000 15.00000000" energy_frozen_part=0.00000000 Properties=species:S:1:pos:R:3:velocities:R:3:Z:I:1
H        13.12487090       7.04785681       8.19649475         0.00000000       0.00000000       0.00000000          1
H        10.48992535       7.86512654       8.63630638         0.00000000       0.00000000       0.00000000          1
H        12.14202135       7.25065296      10.80362860         0.00000000       0.00000000       0.00000000          1
H        12.65895876       4.73809444       9.69722814         0.00000000       0.00000000       0.00000000          1
H        11.00686275       5.35257809       7.52990200         0.00000000       0.00000000       0.00000000          1
H        10.02402253       5.55536434      10.13704367         0.00000000       0.00000000       0.00000000          1
6
pbc=[F, F, F] list_num_par=6 frozen=false iter=20000 energy=-1.26974174 Lattice="15.00000000 0.00000000 0.00000000 0.00000000 15.00000000 0.00000000 0.00000000 0.00000000 15.00000000" energy_frozen_part=0.00000000 Properties=species:S:1:pos:R:3:velocities:R:3:Z:I:1
H        13.04402349       7.16160671       8.18363057         0.00000000       0.00000000       0.00000000          1
H        10.39979534       7.87635388       8.73270128         0.00000000       0.00000000       0.00000000          1
H        12.16575839       7.33924076      10.82963833         0.00000000       0.00000000       0.00000000          1
H        12.73457687       4.84324169       9.71127642         0.00000000       0.00000000       0.00000000          1
H        10.96861737       5.38035397       7.61433465         0.00000000       0.00000000       0.00000000          1
H        10.09034929       5.55799015      10.26034310         0.00000000       0.00000000       0.00000000          1
6
pbc=[F, F, F] list_num_par=6 frozen=false iter=20000 energy=-1.26974174 Lattice="15.00000000 0.00000000 0.00000000 0.00000000 15.00000000 0.00000000 0.00000000 0.00000000 15.00000000" energy_frozen_part=0.00000000 Properties=species:S:1:pos:R:3:velocities:R:3:Z:I:1
H        13.04404629       7.16158085       8.18363894         0.00000000       0.00000000       0.00000000          1
H        10.39982601       7.87634739       8.73270884         0.00000000       0.00000000       0.00000000          1
H        12.16578083       7.33922152      10.82964615         0.00000000       0.00000000       0.00000000          1
H        12.73457375       4.84321888       9.71129143         0.00000000       0.00000000       0.00000000          1
H        10.96861883       5.38034653       7.61434485         0.00000000       0.00000000       0.00000000          1
H        10.09035186       5.55798172      10.26035392         0.00000000       0.00000000       0.00000000          1
6
pbc=[F, F, F] list_num_par=6 frozen=false iter=20000 energy=-1.26974174 Lattice="15.00000000 0.00000000 0.00000000 0.00000000 15.00000000 0.00000000 0.00000000 0.00000000 15.00000000" energy_frozen_part=0.00000000 Properties=species:S:1:pos:R:3:velocities:R:3:Z:I:1
H        13.12484062       7.04793861       8.19643133         0.00000000       0.00000000       0.00000000          1
H        10.48982856       7.86501857       8.63618061         0.00000000       0.00000000       0.00000000          1