6
pbc=[F, F, F] list_num_par=6 energy=128.14202016 iter=9 frozen=false Lattice="15.00000000 0.00000000 0.00000000 0.00000000 15.00000000 0.00000000 0.00000000 0.00000000 15.00000000" energy_frozen_part=0.00000000 Properties=species:S:1:pos:R:3:velocities:R:3:Z:I:1
H        14.32510217       8.71049668       7.93990066         0.00000000       0.00000000       0.00000000          1
H         7.32605542      13.66089586       4.09727260         0.00000000       0.00000000       0.00000000          1
H         7.80462678       3.14061736      13.72207366         0.00000000       0.00000000       0.00000000          1
H         1.42585660       2.44139124       8.19094342         0.00000000       0.00000000       0.00000000          1
H         3.83569281       2.83783304      11.92344086         0.00000000       0.00000000       0.00000000          1
H         0.73005906       1.25846460       7.49549761         0.00000000       0.00000000       0.00000000          1
6
pbc=[F, F, F] list_num_par=6 energy=2.69497379 iter=19 frozen=false Lattice="15.00000000 0.00000000 0.00000000 0.00000000 15.00000000 0.00000000 0.00000000 0.00000000 15.00000000" energy_frozen_part=0.00000000 Properties=species:S:1:pos:R:3:velocities:R:3:Z:I:1
H         8.84635948       2.23544439       0.45044085         0.00000000       0.00000000       0.00000000          1
H        13.04610868       6.14702311       9.49716818         0.00000000       0.00000000       0.00000000          1
H        11.35063721       1.76276176      11.10668620         0.00000000       0.00000000       0.00000000          1
H         7.84853676       0.72240210       6.46016896         0.00000000       0.00000000       0.00000000          1
H         9.03881489       0.28591890       8.08888647         0.00000000       0.00000000       0.00000000          1
H         0.49681999      10.23834591       0.98887828         0.00000000       0.00000000       0.00000000          1
6
pbc=[F, F, F] list_num_par=6 energy=0.22238862 iter=29 frozen=false Lattice="15.00000000 0.00000000 0.00000000 0.00000000 15.00000000 0.00000000 0.00000000 0.00000000 15.00000000" energy_frozen_part=0.00000000 Properties=species:S:1:pos:R:3:velocities:R:3:Z:I:1
H         9.61360409       2.54006690      13.26517887         0.00000000       0.00000000       0.00000000          1
H         4.51243148       6.43402199       6.02313641         0.00000000       0.00000000       0.00000000          1
H         4.17234268       7.45992540       3.92799848         0.00000000       0.00000000       0.00000000          1
H         0.98138859       7.83832032      12.47537311         0.00000000       0.00000000       0.00000000          1
H        10.11874842       0.02993698       4.32642479         0.00000000       0.00000000       0.00000000          1
H        10.83248500       1.38429831       8.63512311         0.00000000       0.00000000       0.00000000          1
6
pbc=[F, F, F] list_num_par=6 energy=-0.00355305 iter=39 frozen=false Lattice="15.00000000 0.00000000 0.00000000 0.00000000 15.00000000 0.00000000 0.00000000 0.00000000 15.00000000" energy_frozen_part=0.00000000 Properties=species:S:1:pos:R:3:velocities:R:3:Z:I:1
H         6.62036310      10.48410866       0.04447478         0.00000000       0.00000000       0.00000000          1
H        11.12195750       4.10606635       4.44811723         0.00000000       0.00000000       0.00000000          1
H         3.79726687       5.75599998       2.84898241         0.00000000       0.00000000       0.00000000          1
H        14.99502603       0.73943312       8.80715382         0.00000000       0.00000000       0.00000000          1
H         1.14881421      14.61112488       3.20787754         0.00000000       0.00000000       0.00000000          1
H         4.45536237       0.18981514      13.07400885         0.00000000       0.00000000       0.00000000          1
6
pbc=[F, F, F] list_num_par=6 energy=-0.00821102 iter=49 frozen=false Lattice="15.00000000 0.00000000 0.00000000 0.00000000 15.00000000 0.00000000 0.00000000 0.00000000 15.00000000" energy_frozen_part=0.00000000 Properties=species:S:1:pos:R:3:velocities:R:3:Z:I:1
H         3.99116802       2.24754256      11.14223111         0.00000000       0.00000000       0.00000000          1
H         7.20024681      10.71709012       0.35557799         0.00000000       0.00000000       0.00000000          1
H         0.78272390       1.38207031       2.83296236         0.00000000       0.00000000       0.00000000          1
H        12.11391434       0.84605992       7.70823968         0.00000000       0.00000000       0.00000000          1
H         5.08802198      10.84262115       8.04386678         0.00000000       0.00000000       0.00000000          1
H        10.39885101      14.17894721       1.32452375         0.00000000       0.00000000       0.00000000          1
6
pbc=[F, F, F] list_num_par=6 energy=-0.00987905 iter=59 frozen=false Lattice="15.00000000 0.00000000 0.00000000 0.00000000 15.00000000 0.00000000 0.00000000 0.00000000 15.00000000" energy_frozen_part=0.00000000 Properties=species:S:1:pos:R:3:velocities:R:3:Z:I:1
H         5.04154066       3.88125635       9.89592725         0.00000000       0.00000000       0.00000000          1
H         9.81286661       9.37850957      10.16129755         0.00000000       0.00000000       0.00000000          1
H        13.08470396      11.91325648      14.73750877         0.00000000       0.00000000       0.00000000          1
H         1.84178469      14.15798133       4.23934052         0.00000000       0.00000000       0.00000000          1
H         4.27879328       9.10037908      10.71828814         0.00000000       0.00000000       0.00000000          1
H        14.14293635      14.00159605       5.24854776         0.00000000       0.00000000       0.00000000          1
6
pbc=[F, F, F] list_num_par=6 energy=-0.01464159 iter=69 frozen=false Lattice="15.00000000 0.00000000 0.00000000 0.00000000 15.00000000 0.00000000 0.00000000 0.00000000 15.00000000" energy_frozen_part=0.00000000 Properties=species:S:1:pos:R:3:velocities:R:3:Z:I:1
H         5.44578194       4.13094872       9.41116966         0.00000000       0.00000000       0.00000000          1
H         9.49985603       9.42444794      10.06290239         0.00000000       0.00000000       0.00000000          1
H        13.16159036      11.98630195      14.45893601         0.00000000       0.00000000       0.00000000          1
H         1.25355569      13.72993726       4.52237577         0.00000000       0.00000000       0.00000000          1
H         4.41081120       8.65439002      10.86804185         0.00000000       0.00000000       0.00000000          1
H        14.44086327      13.77299576       4.67500728         0.00000000       0.00000000       0.00000000          1
6
pbc=[F, F, F] list_num_par=6 energy=-0.01751660 iter=79 frozen=false Lattice="15.00000000 0.00000000 0.00000000 0.00000000 15.00000000 0.00000000 0.00000000 0.00000000 15.00000000" energy_frozen_part=0.00000000 Properties=species:S:1:pos:R:3:velocities:R:3:Z:I:1
H         0.05884477       0.66060741       0.68983540         0.00000000       0.00000000       0.00000000          1
H         9.52605735       7.03144176      13.89441331         0.00000000       0.00000000       0.00000000          1
H         3.14600698       3.71007284       0.59728064         0.00000000       0.00000000       0.00000000          1
H         2.33282920       9.53790283       0.00265739         0.00000000       0.00000000       0.00000000          1
H         2.23443147       9.58186687      13.08532395         0.00000000       0.00000000       0.00000000          1
H        11.96741363       0.78863261      14.39843757         0.00000000       0.00000000       0.00000000          1
6
pbc=[F, F, F] list_num_par=6 energy=-0.01857433 iter=89 frozen=false Lattice="15.00000000 0.00000000 0.00000000 0.00000000 15.00000000 0.00000000 0.00000000 0.00000000 15.00000000" energy_frozen_part=0.00000000 Properties=species:S:1:pos:R:3:velocities:R:3:Z:I:1
H         7.32033642      13.46455747       7.70880208         0.00000000       0.00000000       0.00000000          1
H         3.29937700      12.29367648       5.94452737         0.00000000       0.00000000       0.00000000          1
H         3.56805460       3.43560403       9.09568091         0.00000000       0.00000000       0.00000000          1
H         6.75451497      14.29427126       2.36743489         0.00000000       0.00000000       0.00000000          1
H        14.52628407       4.11097618       3.43701677         0.00000000       0.00000000       0.00000000          1
H        13.52451690      14.48861701      13.01070320         0.00000000       0.00000000       0.00000000          1
6
pbc=[F, F, F] list_num_par=6 energy=-0.02121540 iter=99 frozen=false Lattice="15.00000000 0.00000000 0.00000000 0.00000000 15.00000000 0.00000000 0.00000000 0.00000000 15.00000000" energy_frozen_part=0.00000000 Properties=species:S:1:pos:R:3:velocities:R:3:Z:I:1
H        12.17894650       1.03303957       1.98285241         0.00000000       0.00000000       0.00000000          1
H         8.48378108       5.57713910      13.00447315         0.00000000       0.00000000       0.00000000          1
H         9.03944157      14.41695433       5.48291572         0.00000000       0.00000000       0.00000000          1
H         7.26798615       9.04945512       4.50054751         0.00000000       0.00000000       0.00000000          1
H         4.51323284       5.93308976      14.61390865         0.00000000       0.00000000       0.00000000          1
H        12.71664225       6.68904499       9.64665648         0.00000000       0.00000000       0.00000000          1
6
pbc=[F, F, F] list_num_par=6 energy=-0.02397137 iter=109 frozen=false Lattice="15.00000000 0.00000000 0.00000000 0.00000000 15.00000000 0.00000000 0.00000000 0.00000000 15.00000000" energy_frozen_part=0.00000000 Properties=species:S:1:pos:R:3:velocities:R:3:Z:I:1
H         2.34635439       8.90011518       7.01875302         0.00000000       0.00000000       0.00000000          1
H        11.74463830       1.11471250       4.01233155         0.00000000       0.00000000       0.00000000          1
H        14.14534248      12.66147059       9.69043286         0.00000000       0.00000000       0.00000000          1
H        14.23253620       4.16085096       2.82920076         0.00000000       0.00000000       0.00000000          1
H         1.23017088      12.70660574       3.38825039         0.00000000       0.00000000       0.00000000          1
H         7.71641638      12.94581041       0.94576065         0.00000000       0.00000000       0.00000000          1
6
pbc=[F, F, F] list_num_par=6 energy=-0.02801163 iter=119 frozen=false Lattice="15.00000000 0.00000000 0.00000000 0.00000000 15.00000000 0.00000000 0.00000000 0.00000000 15.00000000" energy_frozen_part=0.00000000 Properties=species:S:1:pos:R:3:velocities:R:3:Z:I:1
H         5.59021527      10.13693847       9.77369290         0.00000000       0.00000000       0.00000000          1
H        13.42213003      13.97328333       7.97471509         0.00000000       0.00000000       0.00000000          1
H        13.10496217       1.92184246       1.86949722         0.00000000       0.00000000       0.00000000          1
H         7.93640558       1.40583037       0.98758164         0.00000000       0.00000000       0.00000000          1
H         8.88363281      11.65688209      11.51078329         0.00000000       0.00000000       0.00000000          1
H        11.58670792       3.52563237      11.43951104         0.00000000       0.00000000       0.00000000          1
6
pbc=[F, F, F] list_num_par=6 energy=-0.03470541 iter=129 frozen=false Lattice="15.00000000 0.00000000 0.00000000 0.00000000 15.00000000 0.00000000 0.00000000 0.00000000 15.00000000" energy_frozen_part=0.00000000 Properties=species:S:1:pos:R:3:velocities:R:3:Z:I:1
H        13.32388874       8.84002820       8.94741005         0.00000000       0.00000000       0.00000000          1
H         7.56670943       7.79286498       7.54456760         0.00000000       0.00000000       0.00000000          1
H         5.43608035       7.10483049       0.15402734         0.00000000       0.00000000       0.00000000          1
H         1.34724543      12.08174057       5.92673269         0.00000000       0.00000000       0.00000000          1
H         8.10758859       1.27088045      12.08425124         0.00000000       0.00000000       0.00000000          1
H         7.60045240       5.11573960       2.60510371         0.00000000       0.00000000       0.00000000          1
6
pbc=[F, F, F] list_num_par=6 energy=-0.04109587 iter=139 frozen=false Lattice="15.00000000 0.00000000 0.00000000 0.00000000 15.00000000 0.00000000 0.00000000 0.00000000 15.00000000" energy_frozen_part=0.00000000 Properties=species:S:1:pos:R:3:velocities:R:3:Z:I:1
H         4.96365682      13.43417161       1.27504665         0.00000000       0.00000000       0.00000000          1
H         8.92144368       3.22566896      10.81240577         0.00000000       0.00000000       0.00000000          1
H         6.97274127       9.60956862       2.87923666         0.00000000       0.00000000       0.00000000          1
H         8.86427752       8.18638821      11.84967854         0.00000000       0.00000000       0.00000000          1
H        14.27430914       0.72020987      14.25332015         0.00000000       0.00000000       0.00000000          1
H         7.49429359       6.00503911       7.86260694         0.00000000       0.00000000       0.00000000          1
6
pbc=[F, F, F] list_num_par=6 energy=-0.04862908 iter=149 frozen=false Lattice="15.00000000 0.00000000 0.00000000 0.00000000 15.00000000 0.00000000 0.00000000 0.00000000 15.00000000" energy_frozen_part=0.00000000 Properties=species:S:1:pos:R:3:velocities:R:3:Z:I:1
H         2.36398291       4.91583037      10.25644283         0.00000000       0.00000000       0.00000000          1
H        12.10355303      14.97346937      10.29308619         0.00000000       0.00000000       0.00000000          1
H         2.80567789       1.66567422       6.68658827         0.00000000       0.00000000       0.00000000          1
H         1.83570076       5.90008964       0.86284345         0.00000000       0.00000000       0.00000000          1
H         5.76341301       5.45759221       7.87743800         0.00000000       0.00000000       0.00000000          1
H         8.07466784       2.98950340       5.10728710         0.00000000       0.00000000       0.00000000          1
6
pbc=[F, F, F] list_num_par=6 energy=-0.05453621 iter=159 frozen=false Lattice="15.00000000 0.00000000 0.00000000 0.00000000 15.00000000 0.00000000 0.00000000 0.00000000 15.00000000" energy_frozen_part=0.00000000 Properties=species:S:1:pos:R:3:velocities:R:3:Z:I:1
H         5.87666561      13.98704395       7.94975444         0.00000000       0.00000000       0.00000000          1
H         4.62985663       9.13094722       2.31801735         0.00000000       0.00000000       0.00000000          1
H        12.15562438       6.53723001      11.76287621         0.00000000       0.00000000       0.00000000          1
H        13.74507568      14.40499642       2.34725180         0.00000000       0.00000000       0.00000000          1
H        11.92655442      13.75747100       5.15794846         0.00000000       0.00000000       0.00000000          1
H         6.96496987       2.99005238       7.45509198         0.00000000       0.00000000       0.00000000          1
6
pbc=[F, F, F] list_num_par=6 energy=-0.06017495 iter=169 frozen=false Lattice="15.00000000 0.00000000 0.00000000 0.00000000 15.00000000 0.00000000 0.00000000 0.00000000 15.00000000" energy_frozen_part=0.00000000 Properties=species:S:1:pos:R:3:velocities:R:3:Z:I:1
H         0.83486953       9.86065177       8.10523252         0.00000000       0.00000000       0.00000000          1
H         8.69806594      13.86986090       7.12319053         0.00000000       0.00000000       0.00000000          1
H         2.29581971       7.30952692       4.87960255         0.00000000       0.00000000       0.00000000          1
H        10.36331000       4.54385154       8.02050301         0.00000000       0.00000000       0.00000000          1
H         2.69960712      12.65413388       5.47112151         0.00000000       0.00000000       0.00000000          1
H         4.26132873      10.04520216       2.11621284         0.00000000       0.00000000       0.00000000          1
6
pbc=[F, F, F] list_num_par=6 energy=-0.06555318 iter=179 frozen=false Lattice="15.00000000 0.00000000 0.00000000 0.00000000 15.00000000 0.00000000 0.00000000 0.00000000 15.00000000" energy_frozen_part=0.00000000 Properties=species:S:1:pos:R:3:velocities:R:3:Z:I:1
H         2.86622522      13.16578184       9.80684384         0.00000000       0.00000000       0.00000000          1
H         6.74482589       5.62665588       4.02583199         0.00000000       0.00000000       0.00000000          1
H         6.09409381       8.16635241       8.38979972         0.00000000       0.00000000       0.00000000          1
H        12.44447871      11.63288240       3.84492944         0.00000000       0.00000000       0.00000000          1
H         9.72212384      13.34148079       2.06435659         0.00000000       0.00000000       0.00000000          1
H        10.41846025       9.35874575       0.23683227         0.00000000       0.00000000       0.00000000          1
6
pbc=[F, F, F] list_num_par=6 energy=-0.07375344 iter=189 frozen=false Lattice="15.00000000 0.00000000 0.00000000 0.00000000 15.00000000 0.00000000 0.00000000 0.00000000 15.00000000" energy_frozen_part=0.00000000 Properties=species:S:1:pos:R:3:velocities:R:3:Z:I:1
H         4.36758713       7.25918725      10.14770976         0.00000000       0.00000000       0.00000000          1
H         5.03822000       8.74512373      13.77291819         0.00000000       0.00000000       0.00000000          1
H        10.68805814       9.91643319      11.42115705         0.00000000       0.00000000       0.00000000          1
H         8.22489036       3.78684356       8.00102614         0.00000000       0.00000000       0.00000000          1
H         5.16213629       2.55884499       9.70377221         0.00000000       0.00000000       0.00000000          1
H         5.97342473      13.53375519       8.40100764         0.00000000       0.00000000       0.00000000          1
6
pbc=[F, F, F] list_num_par=6 energy=-0.08127185 iter=199 frozen=false Lattice="15.00000000 0.00000000 0.00000000 0.00000000 15.00000000 0.00000000 0.00000000 0.00000000 15.00000000" energy_frozen_part=0.00000000 Properties=species:S:1:pos:R:3:velocities:R:3:Z:I:1
H         4.63723536      13.08573760      10.43494223         0.00000000       0.00000000       0.00000000          1
H         9.39378479       5.29870958       2.57768963         0.00000000       0.00000000       0.00000000          1
H        13.35185918       0.16590447       2.42908055         0.00000000       0.00000000       0.00000000          1
H        14.35877687       0.51122010       9.26639654         0.00000000       0.00000000       0.00000000          1
H        12.13960262       6.16471738       1.36345308         0.00000000       0.00000000       0.00000000          1
H         9.73555284       6.22470806      12.73071524         0.00000000       0.00000000       0.00000000          1
6
pbc=[F, F, F] list_num_par=6 energy=-0.08412914 iter=209 frozen=false Lattice="15.00000000 0.00000000 0.00000000 0.00000000 15.00000000 0.00000000 0.00000000 0.00000000 15.00000000" energy_frozen_part=0.00000000 Properties=species:S:1:pos:R:3:velocities:R:3:Z:I:1
H         9.50916074      12.31168870      10.93799312         0.00000000       0.00000000       0.00000000          1
H         9.99804945       3.32353840      14.29132970         0.00000000       0.00000000       0.00000000          1
H        14.42039951      10.66949261       2.67370032         0.00000000       0.00000000       0.00000000          1
H         4.64338761       3.02606986       1.38573512         0.00000000       0.00000000       0.00000000          1
H         9.03251035      13.95167999       2.30430879         0.00000000       0.00000000       0.00000000          1
H        11.21741368      10.80036263       3.49786076         0.00000000       0.00000000       0.00000000          1
6
pbc=[F, F, F] list_num_par=6 energy=-0.08900435 iter=219 frozen=false Lattice="15.00000000 0.00000000 0.00000000 0.00000000 15.00000000 0.00000000 0.00000000 0.00000000 15.00000000" energy_frozen_part=0.00000000 Properties=species:S:1:pos:R:3:velocities:R:3:Z:I:1
H         3.71781053      10.69438253       7.98720228         0.00000000       0.00000000       0.00000000          1
H         8.91294273      11.50303684      14.97880653         0.00000000       0.00000000       0.00000000          1
H         1.59371018       6.05542797       7.84948094         0.00000000       0.00000000       0.00000000          1
H         1.76643396       4.31957562       5.26346897         0.00000000       0.00000000       0.00000000          1
H         7.98753994       4.01680559       5.39162196         0.00000000       0.00000000       0.00000000          1
H        12.62156749       4.13650014       2.07479231         0.00000000       0.00000000       0.00000000          1
6
pbc=[F, F, F] list_num_par=6 energy=-0.09391909 iter=229 frozen=false Lattice="15.00000000 0.00000000 0.00000000 0.00000000 15.00000000 0.00000000 0.00000000 0.00000000 15.00000000" energy_frozen_part=0.00000000 Properties=species:S:1:pos:R:3:velocities:R:3:Z:I:1
H         7.94293455       3.65633227      14.62729861         0.00000000       0.00000000       0.00000000          1
H        10.03132219       8.99311613      12.49876819         0.00000000       0.00000000       0.00000000          1
H        11.75704645      12.31045386       7.46899560         0.00000000       0.00000000       0.00000000          1
H        11.41117372      12.76057416       0.86008755         0.00000000       0.00000000       0.00000000          1
H         8.85670661      13.28012188       1.45264731         0.00000000       0.00000000       0.00000000          1
H        10.14757006       4.17090556       3.46391351         0.00000000       0.00000000       0.00000000          1
6
pbc=[F, F, F] list_num_par=6 energy=-0.10067204 iter=239 frozen=false Lattice="15.00000000 0.00000000 0.00000000 0.00000000 15.00000000 0.00000000 0.00000000 0.00000000 15.00000000" energy_frozen_part=0.00000000 Properties=species:S:1:pos:R:3:velocities:R:3:Z:I:1
H        11.63482007       9.91972950       6.77889545         0.00000000       0.00000000       0.00000000          1
H         0.59437743       6.54863558       1.32701436         0.00000000       0.00000000       0.00000000          1
H        13.97638965      10.59879239       4.45874753         0.00000000       0.00000000       0.00000000          1
H         6.72088345      13.07442173       4.98257463         0.00000000       0.00000000       0.00000000          1
H         7.74764832       1.97550854       5.64692781         0.00000000       0.00000000       0.00000000          1
H         5.21951255       3.37511031       3.52498073         0.00000000       0.00000000       0.00000000          1
6
pbc=[F, F, F] list_num_par=6 energy=-0.10312140 iter=249 frozen=false Lattice="15.00000000 0.00000000 0.00000000 0.00000000 15.00000000 0.00000000 0.00000000 0.00000000 15.00000000" energy_frozen_part=0.00000000 Properties=species:S:1:pos:R:3:velocities:R:3:Z:I:1
H         5.60239896      10.07613449       8.40570196         0.00000000       0.00000000       0.00000000          1
H         6.73179711       8.39407377       0.24748925         0.00000000       0.00000000       0.00000000          1
H         0.81742080      10.01985251      11.07458213         0.00000000       0.00000000       0.00000000          1
H         6.40040444      10.44586368       2.04664476         0.00000000       0.00000000       0.00000000          1
H        14.42706885       1.24496243       1.60989221         0.00000000       0.00000000       0.00000000          1
H        14.58378892      11.70016824      14.55177131         0.00000000       0.00000000       0.00000000          1
6
pbc=[F, F, F] list_num_par=6 energy=-0.10478630 iter=259 frozen=false Lattice="15.00000000 0.00000000 0.00000000 0.00000000 15.00000000 0.00000000 0.00000000 0.00000000 15.00000000" energy_frozen_part=0.00000000 Properties=species:S:1:pos:R:3:velocities:R:3:Z:I:1
H         7.73767805       8.61611605       7.71276698         0.00000000       0.00000000       0.00000000          1
H         4.59139879      11.59717959       5.84350592         0.00000000       0.00000000       0.00000000          1
H         1.79535866      11.08691230       6.66493433         0.00000000       0.00000000       0.00000000          1
H         6.44056609       6.32301390       1.41990048         0.00000000       0.00000000       0.00000000          1
H        13.44765082       2.37455173      11.39749127         0.00000000       0.00000000       0.00000000          1
H        14.77608253       6.47027994       5.16362695         0.00000000       0.00000000       0.00000000          1
6
pbc=[F, F, F] list_num_par=6 energy=-0.10758303 iter=269 frozen=false Lattice="15.00000000 0.00000000 0.00000000 0.00000000 15.00000000 0.00000000 0.00000000 0.00000000 15.00000000" energy_frozen_part=0.00000000 Properties=species:S:1:pos:R:3:velocities:R:3:Z:I:1
H         6.78490851      11.77991817       5.07959679         0.00000000       0.00000000       0.00000000          1
H         4.63725776       4.46743108       6.97856364         0.00000000       0.00000000       0.00000000          1
H         2.07850570      11.67351471      11.18055832         0.00000000       0.00000000       0.00000000          1
H        12.25623551       9.85788922       5.43697549         0.00000000       0.00000000       0.00000000          1
H         2.79283787      13.36073518      13.41153211         0.00000000       0.00000000       0.00000000          1
H        14.04652820       5.47203706       4.15990619         0.00000000       0.00000000       0.00000000          1
6
pbc=[F, F, F] list_num_par=6 energy=-0.10905760 iter=279 frozen=false Lattice="15.00000000 0.00000000 0.00000000 0.00000000 15.00000000 0.00000000 0.00000000 0.00000000 15.00000000" energy_frozen_part=0.00000000 Properties=species:S:1:pos:R:3:velocities:R:3:Z:I:1
H        14.67553654       3.91570547       9.89365343         0.00000000       0.00000000       0.00000000          1
H         9.78113422       4.98052715       6.93051880         0.00000000       0.00000000       0.00000000          1
H         4.39274503       0.02799177       6.57338903         0.00000000       0.00000000       0.00000000          1
H        14.59813549      12.36889218      10.61779855         0.00000000       0.00000000       0.00000000          1
H         8.07746202       3.57328584       8.58247159         0.00000000       0.00000000       0.00000000          1
H         2.69046405       6.57432055       8.66320444         0.00000000       0.00000000       0.00000000          1
6
pbc=[F, F, F] list_num_par=6 energy=-0.11315531 iter=289 frozen=false Lattice="15.00000000 0.00000000 0.00000000 0.00000000 15.00000000 0.00000000 0.00000000 0.00000000 15.00000000" energy_frozen_part=0.00000000 Properties=species:S:1:pos:R:3:velocities:R:3:Z:I:1
H         6.14678200      14.10448010       9.68535048         0.00000000       0.00000000       0.00000000          1
H         3.18888557       6.53837615      12.21585696         0.00000000       0.00000000       0.00000000          1
H        13.95220708       3.68669594       2.99147125         0.00000000       0.00000000       0.00000000          1
H         0.48004616       8.92254058      10.45801078         0.00000000       0.00000000       0.00000000          1
H        14.22017238       5.94333053       0.99023616         0.00000000       0.00000000       0.00000000          1
H        10.85932116       5.31184230       7.18968825         0.00000000       0.00000000       0.00000000          1
6
pbc=[F, F, F] list_num_par=6 energy=-0.11722608 iter=299 frozen=false Lattice="15.00000000 0.00000000 0.00000000 0.00000000 15.00000000 0.00000000 0.00000000 0.00000000 15.00000000" energy_frozen_part=0.00000000 Properties=species:S:1:pos:R:3:velocities:R:3:Z:I:1
H         4.18484668       1.94923430      14.20033924         0.00000000       0.00000000       0.00000000          1
H         4.28945306      14.13421625       7.55499096         0.00000000       0.00000000       0.00000000          1
H        13.93324617       2.14668466       5.33877927         0.00000000       0.00000000       0.00000000          1
H         2.09073661      11.08402913      10.49359009         0.00000000       0.00000000       0.00000000          1
H        13.53734504       7.38451768       6.97796995         0.00000000       0.00000000       0.00000000          1
H         6.43199910      12.63205293       8.52359406         0.00000000       0.00000000       0.00000000          1
6
pbc=[F, F, F] list_num_par=6 energy=-0.12307607 iter=309 frozen=false Lattice="15.00000000 0.00000000 0.00000000 0.00000000 15.00000000 0.00000000 0.00000000 0.00000000 15.00000000" energy_frozen_part=0.00000000 Properties=species:S:1:pos:R:3:velocities:R:3:Z:I:1
H         7.51172195      13.39213960       8.08738508         0.00000000       0.00000000       0.00000000          1
H         8.37490766       4.46344055       5.41980743         0.00000000       0.00000000       0.00000000          1