6
pbc=[F, F, F] list_num_par=6 energy=1.14839723 iter=9 frozen=false Lattice="15.00000000 0.00000000 0.00000000 0.00000000 15.00000000 0.00000000 0.00000000 0.00000000 15.00000000" energy_frozen_part=0.00000000 Properties=species:S:1:pos:R:3:velocities:R:3:Z:I:1
H         3.90454039       3.01134896      10.93890757         0.00000000       0.00000000       0.00000000          1
H         7.13226416       6.82502016       9.91509159         0.00000000       0.00000000       0.00000000          1
H        11.42790404      12.95744808       4.83259718         0.00000000       0.00000000       0.00000000          1
H         9.83930451       2.47750321       1.45671888         0.00000000       0.00000000       0.00000000          1
H         8.68793441       3.64712976       0.03403307         0.00000000       0.00000000       0.00000000          1
H         7.90614606       4.48988358       7.91645319         0.00000000       0.00000000       0.00000000          1
6
pbc=[F, F, F] list_num_par=6 energy=-0.00036848 iter=19 frozen=false Lattice="15.00000000 0.00000000 0.00000000 0.00000000 15.00000000 0.00000000 0.00000000 0.00000000 15.00000000" energy_frozen_part=0.00000000 Properties=species:S:1:pos:R:3:velocities:R:3:Z:I:1
H         4.74497242      14.24879473       9.14049356         0.00000000       0.00000000       0.00000000          1
H         9.49268440       0.41243811       7.63891471         0.00000000       0.00000000       0.00000000          1
H        10.67865548       7.31892758       3.70654372         0.00000000       0.00000000       0.00000000          1
H         0.05620490      12.46989061       0.85576656         0.00000000       0.00000000       0.00000000          1
H         3.34003854       6.28009830      14.89864723         0.00000000       0.00000000       0.00000000          1
H        13.93081078       9.26703784      11.93542357         0.00000000       0.00000000       0.00000000          1
6
pbc=[F, F, F] list_num_par=6 energy=-0.00361130 iter=29 frozen=false Lattice="15.00000000 0.00000000 0.00000000 0.00000000 15.00000000 0.00000000 0.00000000 0.00000000 15.00000000" energy_frozen_part=0.00000000 Properties=species:S:1:pos:R:3:velocities:R:3:Z:I:1
H         5.25238068       9.66861404       0.17515580         0.00000000       0.00000000       0.00000000          1
H         9.61068277       5.03826040       6.13915047         0.00000000       0.00000000       0.00000000          1
H         2.77302439      13.61870335      14.80346986         0.00000000       0.00000000       0.00000000          1
H         1.74211957      10.58466641       9.69920839         0.00000000       0.00000000       0.00000000          1
H         8.87634964       6.18620739      12.31182499         0.00000000       0.00000000       0.00000000          1
H        13.48137740      14.85301484       1.65477963         0.00000000       0.00000000       0.00000000          1
6
pbc=[F, F, F] list_num_par=6 energy=-0.00647417 iter=39 frozen=false Lattice="15.00000000 0.00000000 0.00000000 0.00000000 15.00000000 0.00000000 0.00000000 0.00000000 15.00000000" energy_frozen_part=0.00000000 Properties=species:S:1:pos:R:3:velocities:R:3:Z:I:1
H        14.27189579       2.08799520       0.36597164         0.00000000       0.00000000       0.00000000          1
H        14.67362820      12.77941091       4.20005888         0.00000000       0.00000000       0.00000000          1
H        12.87622946       5.64347376      12.83319214         0.00000000       0.00000000       0.00000000          1
H         0.00444399       4.24434265      13.79987784         0.00000000       0.00000000       0.00000000          1
H         1.22513917      14.62848580      14.15021955         0.00000000       0.00000000       0.00000000          1
H        12.22138182       5.88981660       2.90244298         0.00000000       0.00000000       0.00000000          1
6
pbc=[F, F, F] list_num_par=6 energy=-0.00858973 iter=49 frozen=false Lattice="15.00000000 0.00000000 0.00000000 0.00000000 15.00000000 0.00000000 0.00000000 0.00000000 15.00000000" energy_frozen_part=0.00000000 Properties=species:S:1:pos:R:3:velocities:R:3:Z:I:1
H         5.07498709       3.34254796       7.40743301         0.00000000       0.00000000       0.00000000          1
H        10.25857933       1.87218580       5.51421913         0.00000000       0.00000000       0.00000000          1
H        13.32809745      11.57657345       1.48049116         0.00000000       0.00000000       0.00000000          1
H        11.09966830      10.51084721      10.41397347         0.00000000       0.00000000       0.00000000          1
H         5.46392527       4.18288225       2.13350950         0.00000000       0.00000000       0.00000000          1
H         2.86185591      11.18815450       9.62397572         0.00000000       0.00000000       0.00000000          1
6
pbc=[F, F, F] list_num_par=6 energy=-0.00988880 iter=59 frozen=false Lattice="15.00000000 0.00000000 0.00000000 0.00000000 15.00000000 0.00000000 0.00000000 0.00000000 15.00000000" energy_frozen_part=0.00000000 Properties=species:S:1:pos:R:3:velocities:R:3:Z:I:1
H         5.95407632       3.49045664       8.12443324         0.00000000       0.00000000       0.00000000          1
H        10.18391439       2.18224980       5.64595560         0.00000000       0.00000000       0.00000000          1
H        12.75086077      11.66425589       2.04236689         0.00000000       0.00000000       0.00000000          1
H        11.53520929      11.13723345      10.34039417         0.00000000       0.00000000       0.00000000          1
H         5.74630277       4.65087536       2.23721447         0.00000000       0.00000000       0.00000000          1
H         3.40814213      11.32821990      10.03679108         0.00000000       0.00000000       0.00000000          1
6
pbc=[F, F, F] list_num_par=6 energy=-0.01613778 iter=69 frozen=false Lattice="15.00000000 0.00000000 0.00000000 0.00000000 15.00000000 0.00000000 0.00000000 0.00000000 15.00000000" energy_frozen_part=0.00000000 Properties=species:S:1:pos:R:3:velocities:R:3:Z:I:1
H         3.04399729      10.72811804      12.78122572         0.00000000       0.00000000       0.00000000          1
H         0.32440198       7.93415783       7.31064403         0.00000000       0.00000000       0.00000000          1
H        12.49634445       5.35586475       6.11220881         0.00000000       0.00000000       0.00000000          1
H        11.95707143       9.20618341       3.77042733         0.00000000       0.00000000       0.00000000          1
H         8.50448559       0.72227588       1.23355920         0.00000000       0.00000000       0.00000000          1
H         0.34390903       2.60056091       6.97782284         0.00000000       0.00000000       0.00000000          1
6
pbc=[F, F, F] list_num_par=6 energy=-0.02324560 iter=79 frozen=false Lattice="15.00000000 0.00000000 0.00000000 0.00000000 15.00000000 0.00000000 0.00000000 0.00000000 15.00000000" energy_frozen_part=0.00000000 Properties=species:S:1:pos:R:3:velocities:R:3:Z:I:1
H        11.82312059       0.06268394      13.55517029         0.00000000       0.00000000       0.00000000          1
H         0.83826612       0.61789926       4.86044433         0.00000000       0.00000000       0.00000000          1
H         1.35949852       7.18612844       4.24175315         0.00000000       0.00000000       0.00000000          1
H         0.61442870       1.75911114       8.75923042         0.00000000       0.00000000       0.00000000          1
H         1.50069298       4.65967045      14.75592875         0.00000000       0.00000000       0.00000000          1
H         9.75366270       8.06005121      13.19855198         0.00000000       0.00000000       0.00000000          1
6
pbc=[F, F, F] list_num_par=6 energy=-0.02532664 iter=89 frozen=false Lattice="15.00000000 0.00000000 0.00000000 0.00000000 15.00000000 0.00000000 0.00000000 0.00000000 15.00000000" energy_frozen_part=0.00000000 Properties=species:S:1:pos:R:3:velocities:R:3:Z:I:1
H         6.71889099       3.06574100      14.42787704         0.00000000       0.00000000       0.00000000          1
H         7.45796544       3.25734689       9.49078567         0.00000000       0.00000000       0.00000000          1
H         6.20318977       8.38222781       9.43170050         0.00000000       0.00000000       0.00000000          1
H         4.10892883      13.73633712       0.89377226         0.00000000       0.00000000       0.00000000          1
H        12.25666490      14.50394737       2.76188255         0.00000000       0.00000000       0.00000000          1
H         6.18712897       4.64005058       5.36126638         0.00000000       0.00000000       0.00000000          1
6
pbc=[F, F, F] list_num_par=6 energy=-0.02959887 iter=99 frozen=false Lattice="15.00000000 0.00000000 0.00000000 0.00000000 15.00000000 0.00000000 0.00000000 0.00000000 15.00000000" energy_frozen_part=0.00000000 Properties=species:S:1:pos:R:3:velocities:R:3:Z:I:1
H         6.44766435       4.90007172       9.08751923         0.00000000       0.00000000       0.00000000          1
H         6.64286694      12.44533621       8.65403791         0.00000000       0.00000000       0.00000000          1
H         3.07960448       0.86086594      13.63306018         0.00000000       0.00000000       0.00000000          1
H         1.95140460      14.05873815      10.75936147         0.00000000       0.00000000       0.00000000          1
H         3.09328876       8.98784931       1.48542807         0.00000000       0.00000000       0.00000000          1
H         5.72033619      10.32840148      12.04932016         0.00000000       0.00000000       0.00000000          1
6
pbc=[F, F, F] list_num_par=6 energy=-0.03536213 iter=109 frozen=false Lattice="15.00000000 0.00000000 0.00000000 0.00000000 15.00000000 0.00000000 0.00000000 0.00000000 15.00000000" energy_frozen_part=0.00000000 Properties=species:S:1:pos:R:3:velocities:R:3:Z:I:1
H        12.53345185       2.62606648      14.82172538         0.00000000       0.00000000       0.00000000          1
H         6.25715858      12.72804979      11.72073262         0.00000000       0.00000000       0.00000000          1
H         1.66017701       1.53735126      13.76376619         0.00000000       0.00000000       0.00000000          1
H         4.68810263       2.66493830       3.22349343         0.00000000       0.00000000       0.00000000          1
H         6.57685225       0.13009273       5.12760546         0.00000000       0.00000000       0.00000000          1
H        10.60352555      14.82076905       6.20533017         0.00000000       0.00000000       0.00000000          1
6
pbc=[F, F, F] list_num_par=6 energy=-0.04010651 iter=119 frozen=false Lattice="15.00000000 0.00000000 0.00000000 0.00000000 15.00000000 0.00000000 0.00000000 0.00000000 15.00000000" energy_frozen_part=0.00000000 Properties=species:S:1:pos:R:3:velocities:R:3:Z:I:1
H         6.59513960      10.61259171      14.64058198         0.00000000       0.00000000       0.00000000          1
H         7.35563765      12.94651845      10.16136973         0.00000000       0.00000000       0.00000000          1
H        11.57041526       1.45499113      14.71245815         0.00000000       0.00000000       0.00000000          1
H        11.36223009       5.43813930      14.93236142         0.00000000       0.00000000       0.00000000          1
H        11.37710412      11.40401736       8.31775236         0.00000000       0.00000000       0.00000000          1
H        10.93287652      10.15477860       2.54976267         0.00000000       0.00000000       0.00000000          1
6
pbc=[F, F, F] list_num_par=6 energy=-0.04682845 iter=129 frozen=false Lattice="15.00000000 0.00000000 0.00000000 0.00000000 15.00000000 0.00000000 0.00000000 0.00000000 15.00000000" energy_frozen_part=0.00000000 Properties=species:S:1:pos:R:3:velocities:R:3:Z:I:1
H         6.45496150       3.02383318      11.10272482         0.00000000       0.00000000       0.00000000          1
H         7.05924481       0.43795814       3.83513609         0.00000000       0.00000000       0.00000000          1
H        14.14012222       9.81604393       9.26695768         0.00000000       0.00000000       0.00000000          1
H         6.00146239       6.49255959      12.56996062         0.00000000       0.00000000       0.00000000          1
H         9.31862034       4.07424940       3.09143274         0.00000000       0.00000000       0.00000000          1
H        14.96733894       2.72655357       4.51210460         0.00000000       0.00000000       0.00000000          1
6
pbc=[F, F, F] list_num_par=6 energy=-0.05517726 iter=139 frozen=false Lattice="15.00000000 0.00000000 0.00000000 0.00000000 15.00000000 0.00000000 0.00000000 0.00000000 15.00000000" energy_frozen_part=0.00000000 Properties=species:S:1:pos:R:3:velocities:R:3:Z:I:1
H        11.62229094       0.73248247       4.65644580         0.00000000       0.00000000       0.00000000          1
H         4.92382409      11.42346051       7.83694360         0.00000000       0.00000000       0.00000000          1
H         9.90974025      10.70526359       8.31352157         0.00000000       0.00000000       0.00000000          1
H         1.49684399      11.94744413       8.22104863         0.00000000       0.00000000       0.00000000          1
H         3.22823475       4.45610100       4.63575834         0.00000000       0.00000000       0.00000000          1
H         1.52054277      12.79438019      14.37562360         0.00000000       0.00000000       0.00000000          1
6
pbc=[F, F, F] list_num_par=6 energy=-0.05943461 iter=149 frozen=false Lattice="15.00000000 0.00000000 0.00000000 0.00000000 15.00000000 0.00000000 0.00000000 0.00000000 15.00000000" energy_frozen_part=0.00000000 Properties=species:S:1:pos:R:3:velocities:R:3:Z:I:1
H         1.11579423      11.87542270       7.14496209         0.00000000       0.00000000       0.00000000          1
H         7.09514361       4.82851919       4.88715061         0.00000000       0.00000000       0.00000000          1
H        14.93588617      13.02304150      10.62235636         0.00000000       0.00000000       0.00000000          1
H        14.07894859       1.86891389      10.76689164         0.00000000       0.00000000       0.00000000          1
H        14.77305227       0.78752586       7.67767341         0.00000000       0.00000000       0.00000000          1
H         8.94515113      11.83822401      11.06253461         0.00000000       0.00000000       0.00000000          1
6
pbc=[F, F, F] list_num_par=6 energy=-0.06620740 iter=159 frozen=false Lattice="15.00000000 0.00000000 0.00000000 0.00000000 15.00000000 0.00000000 0.00000000 0.00000000 15.00000000" energy_frozen_part=0.00000000 Properties=species:S:1:pos:R:3:velocities:R:3:Z:I:1
H         2.71406365      11.08282830       8.83564335         0.00000000       0.00000000       0.00000000          1
H        10.23748116       5.08277157      11.32132445         0.00000000       0.00000000       0.00000000          1
H         9.51454944       6.18666296       7.59357683         0.00000000       0.00000000       0.00000000          1
H         2.97074418       8.42711213       2.12348551         0.00000000       0.00000000       0.00000000          1
H         4.59965306       7.72086336       6.36024458         0.00000000       0.00000000       0.00000000          1
H        12.38798548       1.44220649      11.68080324         0.00000000       0.00000000       0.00000000          1
6
pbc=[F, F, F] list_num_par=6 energy=-0.07108183 iter=169 frozen=false Lattice="15.00000000 0.00000000 0.00000000 0.00000000 15.00000000 0.00000000 0.00000000 0.00000000 15.00000000" energy_frozen_part=0.00000000 Properties=species:S:1:pos:R:3:velocities:R:3:Z:I:1
H         8.59472555       6.19226558      13.65313236         0.00000000       0.00000000       0.00000000          1
H         1.51274785       8.98955460       3.84093318         0.00000000       0.00000000       0.00000000          1
H        10.61189697      13.96451697       4.85528936         0.00000000       0.00000000       0.00000000          1
H        11.96030093      10.87394998       8.10209876         0.00000000       0.00000000       0.00000000          1
H        11.02268896       8.53302165      14.52126722         0.00000000       0.00000000       0.00000000          1
H        14.25087225      13.88201276      10.41367977         0.00000000       0.00000000       0.00000000          1
6
pbc=[F, F, F] list_num_par=6 energy=-0.07879926 iter=179 frozen=false Lattice="15.00000000 0.00000000 0.00000000 0.00000000 15.00000000 0.00000000 0.00000000 0.00000000 15.00000000" energy_frozen_part=0.00000000 Properties=species:S:1:pos:R:3:velocities:R:3:Z:I:1
H        11.77301910       6.10725001      14.31396590         0.00000000       0.00000000       0.00000000          1
H         3.67460119      13.17117843      13.09244170         0.00000000       0.00000000       0.00000000          1
H         3.45169918       0.38227019      11.47107848         0.00000000       0.00000000       0.00000000          1
H         5.56505935       6.05045150       3.40728794         0.00000000       0.00000000       0.00000000          1
H         6.90444160       4.15885365       5.48440079         0.00000000       0.00000000       0.00000000          1
H        13.88053366      13.12480616       7.16945907         0.00000000       0.00000000       0.00000000          1
6
pbc=[F, F, F] list_num_par=6 energy=-0.08400744 iter=189 frozen=false Lattice="15.00000000 0.00000000 0.00000000 0.00000000 15.00000000 0.00000000 0.00000000 0.00000000 15.00000000" energy_frozen_part=0.00000000 Properties=species:S:1:pos:R:3:velocities:R:3:Z:I:1
H         2.68915231      10.47863337      12.77069230         0.00000000       0.00000000       0.00000000          1
H         7.19430630      10.16542347      10.78175268         0.00000000       0.00000000       0.00000000          1
H         3.23897289       6.10633759      12.24214558         0.00000000       0.00000000       0.00000000          1
H         7.46453259      11.96652251       8.01508532         0.00000000       0.00000000       0.00000000          1
H         8.01060683       9.72617199       1.62483704         0.00000000       0.00000000       0.00000000          1
H        13.59379097      12.15974843      13.65653442         0.00000000       0.00000000       0.00000000          1
6
pbc=[F, F, F] list_num_par=6 energy=-0.08806888 iter=199 frozen=false Lattice="15.00000000 0.00000000 0.00000000 0.00000000 15.00000000 0.00000000 0.00000000 0.00000000 15.00000000" energy_frozen_part=0.00000000 Properties=species:S:1:pos:R:3:velocities:R:3:Z:I:1
H        10.37007218       3.54549546       5.29599560         0.00000000       0.00000000       0.00000000          1
H         4.57848127      14.01079306       5.33169684         0.00000000       0.00000000       0.00000000          1
H         9.51415993       7.85959939       6.50167459         0.00000000       0.00000000       0.00000000          1
H         1.95932595      10.33644159      11.69670333         0.00000000       0.00000000       0.00000000          1
H         7.75401698       4.38550891       7.37143745         0.00000000       0.00000000       0.00000000          1
H         5.54477645      14.04051079      13.11137517         0.00000000       0.00000000       0.00000000          1
6
pbc=[F, F, F] list_num_par=6 energy=-0.09160065 iter=209 frozen=false Lattice="15.00000000 0.00000000 0.00000000 0.00000000 15.00000000 0.00000000 0.00000000 0.00000000 15.00000000" energy_frozen_part=0.00000000 Properties=species:S:1:pos:R:3:velocities:R:3:Z:I:1
H        14.51320452      12.73863812       6.97337215         0.00000000       0.00000000       0.00000000          1
H         6.69741033       1.66668268       3.70856363         0.00000000       0.00000000       0.00000000          1
H        13.46566867       9.08597988      13.15152241         0.00000000       0.00000000       0.00000000          1
H        14.65337230      11.08352116       8.85259475         0.00000000       0.00000000       0.00000000          1
H         0.41623861       6.91368756       0.76117074         0.00000000       0.00000000       0.00000000          1
H         4.12856384       2.76348298       5.14280077         0.00000000       0.00000000       0.00000000          1
6
pbc=[F, F, F] list_num_par=6 energy=-0.09638997 iter=219 frozen=false Lattice="15.00000000 0.00000000 0.00000000 0.00000000 15.00000000 0.00000000 0.00000000 0.00000000 15.00000000" energy_frozen_part=0.00000000 Properties=species:S:1:pos:R:3:velocities:R:3:Z:I:1
H         6.51217321      11.81087513       3.58645683         0.00000000       0.00000000       0.00000000          1
H         0.20657141       0.96487052      11.42574858         0.00000000       0.00000000       0.00000000          1
H        13.10136242       6.72227745       3.34074856         0.00000000       0.00000000       0.00000000          1
H        12.37081829       4.32496674       1.17061615         0.00000000       0.00000000       0.00000000          1
H         5.76112442       9.05421656       5.94957098         0.00000000       0.00000000       0.00000000          1
H        13.06368397       7.40795900       9.45944943         0.00000000       0.00000000       0.00000000          1
6
pbc=[F, F, F] list_num_par=6 energy=-0.09865693 iter=229 frozen=false Lattice="15.00000000 0.00000000 0.00000000 0.00000000 15.00000000 0.00000000 0.00000000 0.00000000 15.00000000" energy_frozen_part=0.00000000 Properties=species:S:1:pos:R:3:velocities:R:3:Z:I:1
H        10.83673774       5.03920659      12.79543853         0.00000000       0.00000000       0.00000000          1
H        10.48148264       8.15391452       2.92311536         0.00000000       0.00000000       0.00000000          1
H         3.36617195       7.89844170       8.59599444         0.00000000       0.00000000       0.00000000          1
H         1.57005259       3.89848928      12.48112822         0.00000000       0.00000000       0.00000000          1
H         3.28784937       4.76078307       8.85941762         0.00000000       0.00000000       0.00000000          1
H         7.46423517      12.48602418      10.29918253         0.00000000       0.00000000       0.00000000          1
6
pbc=[F, F, F] list_num_par=6 energy=-0.10130310 iter=239 frozen=false Lattice="15.00000000 0.00000000 0.00000000 0.00000000 15.00000000 0.00000000 0.00000000 0.00000000 15.00000000" energy_frozen_part=0.00000000 Properties=species:S:1:pos:R:3:velocities:R:3:Z:I:1
H         2.27582823      11.25408130       3.45026032         0.00000000       0.00000000       0.00000000          1
H         8.63106310       0.27690455       4.13667439         0.00000000       0.00000000       0.00000000          1
H        12.76570544      14.93831527      14.42288244         0.00000000       0.00000000       0.00000000          1
H        12.21115879       3.77533286       9.99877232         0.00000000       0.00000000       0.00000000          1
H        14.26519528       5.14960155       8.73860874         0.00000000       0.00000000       0.00000000          1
H        10.05502495      11.51674331       8.98614995         0.00000000       0.00000000       0.00000000          1
6
pbc=[F, F, F] list_num_par=6 energy=-0.10324403 iter=249 frozen=false Lattice="15.00000000 0.00000000 0.00000000 0.00000000 15.00000000 0.00000000 0.00000000 0.00000000 15.00000000" energy_frozen_part=0.00000000 Properties=species:S:1:pos:R:3:velocities:R:3:Z:I:1
H         5.98562657       5.70231445       9.30038993         0.00000000       0.00000000       0.00000000          1
H        14.74246256       9.66243379       3.11198195         0.00000000       0.00000000       0.00000000          1
H         6.40616333      13.32865478       7.88203028         0.00000000       0.00000000       0.00000000          1
H        13.34418016       0.48635201       1.74037241         0.00000000       0.00000000       0.00000000          1
H        12.23634263       8.23636777       2.71600719         0.00000000       0.00000000       0.00000000          1
H         5.66956128      12.64891716       2.98229426         0.00000000       0.00000000       0.00000000          1
6
pbc=[F, F, F] list_num_par=6 energy=-0.10542522 iter=259 frozen=false Lattice="15.00000000 0.00000000 0.00000000 0.00000000 15.00000000 0.00000000 0.00000000 0.00000000 15.00000000" energy_frozen_part=0.00000000 Properties=species:S:1:pos:R:3:velocities:R:3:Z:I:1
H         7.55299049       1.70289294      14.82309368         0.00000000       0.00000000       0.00000000          1
H         9.06039729       5.82489227       0.49160117         0.00000000       0.00000000       0.00000000          1
H        11.68054490      14.83624597       6.78802275         0.00000000       0.00000000       0.00000000          1
H         9.62399965       0.07509440      13.98443018         0.00000000       0.00000000       0.00000000          1
H         1.61814765      11.67186308      14.74367122         0.00000000       0.00000000       0.00000000          1
H        14.16238563       2.37565428      13.85650236         0.00000000       0.00000000       0.00000000          1
6
pbc=[F, F, F] list_num_par=6 energy=-0.10709152 iter=269 frozen=false Lattice="15.00000000 0.00000000 0.00000000 0.00000000 15.00000000 0.00000000 0.00000000 0.00000000 15.00000000" energy_frozen_part=0.00000000 Properties=species:S:1:pos:R:3:velocities:R:3:Z:I:1
H         0.33222193      13.57521574      11.51923307         0.00000000       0.00000000       0.00000000          1
H         4.51193644       9.95625605       7.66788212         0.00000000       0.00000000       0.00000000          1
H         1.35048124       9.64191998       8.46530295         0.00000000       0.00000000       0.00000000          1
H         2.45287277      12.82814834       4.11222325         0.00000000       0.00000000       0.00000000          1
H        14.83545422       7.04925029      11.62136081         0.00000000       0.00000000       0.00000000          1
H        14.31682133      10.85061424      11.29735226         0.00000000       0.00000000       0.00000000          1
6
pbc=[F, F, F] list_num_par=6 energy=-0.11005436 iter=279 frozen=false Lattice="15.00000000 0.00000000 0.00000000 0.00000000 15.00000000 0.00000000 0.00000000 0.00000000 15.00000000" energy_frozen_part=0.00000000 Properties=species:S:1:pos:R:3:velocities:R:3:Z:I:1
H         3.57264254       3.14911439      14.60185566         0.00000000       0.00000000       0.00000000          1
H         2.34319386       6.00573062       7.45352869         0.00000000       0.00000000       0.00000000          1
H         3.71589398       0.67772733       7.46677953         0.00000000       0.00000000       0.00000000          1
H         6.28808059       1.75658624       7.05224715         0.00000000       0.00000000       0.00000000          1
H        13.47536041      13.29914154      14.24409989         0.00000000       0.00000000       0.00000000          1
H         7.41596788       5.54054193       2.72206504         0.00000000       0.00000000       0.00000000          1
6
pbc=[F, F, F] list_num_par=6 energy=-0.11183607 iter=289 frozen=false Lattice="15.00000000 0.00000000 0.00000000 0.00000000 15.00000000 0.00000000 0.00000000 0.00000000 15.00000000" energy_frozen_part=0.00000000 Properties=species:S:1:pos:R:3:velocities:R:3:Z:I:1
H         5.14305812      12.57604839      10.59160297         0.00000000       0.00000000       0.00000000          1
H         1.63323260      14.38053480      12.62308006         0.00000000       0.00000000       0.00000000          1
H        12.26283927       1.60632119      14.48510217         0.00000000       0.00000000       0.00000000          1
H        12.79498277       8.96345871      12.90823279         0.00000000       0.00000000       0.00000000          1
H         6.92205452      10.28919717      10.68949276         0.00000000       0.00000000       0.00000000          1
H        14.27291131       7.30065026       4.90979439         0.00000000       0.00000000       0.00000000          1
6
pbc=[F, F, F] list_num_par=6 energy=-0.11484267 iter=299 frozen=false Lattice="15.00000000 0.00000000 0.00000000 0.00000000 15.00000000 0.00000000 0.00000000 0.00000000 15.00000000" energy_frozen_part=0.00000000 Properties=species:S:1:pos:R:3:velocities:R:3:Z:I:1
H         5.55243700       8.33545368      10.53982276         0.00000000       0.00000000       0.00000000          1
H        11.13282895      14.54423189       4.24809008         0.00000000       0.00000000       0.00000000          1
H         4.63282670       7.33796788      12.66614497         0.00000000       0.00000000       0.00000000          1
H        13.35163031      14.44631650       2.22634012         0.00000000       0.00000000       0.00000000          1
H         7.18763039       3.55173680       7.81844502         0.00000000       0.00000000       0.00000000          1
H         9.30856831       6.62876314       3.36194316         0.00000000       0.00000000       0.00000000          1
6
pbc=[F, F, F] list_num_par=6 energy=-0.11767102 iter=309 frozen=false Lattice="15.00000000 0.00000000 0.00000000 0.00000000 15.00000000 0.00000000 0.00000000 0.00000000 15.00000000" energy_frozen_part=0.00000000 Properties=species:S:1:pos:R:3:velocities:R:3:Z:I:1
H         1.44470012      10.48268178      14.13947833         0.00000000       0.00000000       0.00000000          1
H         9.36929463       7.87378034       0.49262919         0.00000000       0.00000000       0.00000000          1