6
pbc=[F, F, F] list_num_par=6 frozen=false iter=20000 energy=-1.26974174 Lattice="15.00000000 0.00000000 0.00000000 0.00000000 15.00000000 0.00000000 0.00000000 0.00000000 15.00000000" energy_frozen_part=0.00000000 Properties=species:S:1:pos:R:3:velocities:R:3:Z:I:1
H         9.67328802       8.00486048       7.09634581         0.00000000       0.00000000       0.00000000          1
H         9.39361243       9.78289987       9.23284902         0.00000000       0.00000000       0.00000000          1
H         6.65745488       9.22871068       9.33588688         0.00000000       0.00000000       0.00000000          1
H         7.81931020      10.08915497       6.94548169         0.00000000       0.00000000       0.00000000          1
H         8.51144538       7.14441821       9.48675032         0.00000000       0.00000000       0.00000000          1
H         6.93713686       7.45067304       7.19938621         0.00000000       0.00000000       0.00000000          1
6
pbc=[F, F, F] list_num_par=6 frozen=false iter=20000 energy=-1.26974174 Lattice="15.00000000 0.00000000 0.00000000 0.00000000 15.00000000 0.00000000 0.00000000 0.00000000 15.00000000" energy_frozen_part=0.00000000 Properties=species:S:1:pos:R:3:velocities:R:3:Z:I:1
H         9.66878417       8.00529030       7.10447747         0.00000000       0.00000000       0.00000000          1
H         9.38866023       9.77907001       9.24446092         0.00000000       0.00000000       0.00000000          1
H         6.65234501       9.22526862       9.34532140         0.00000000       0.00000000       0.00000000          1
H         7.81530801      10.09028501       6.95710852         0.00000000       0.00000000       0.00000000          1
H         8.50582138       7.14027180       9.49268439         0.00000000       0.00000000       0.00000000          1
H         6.93246767       7.45148483       7.20533426         0.00000000       0.00000000       0.00000000          1
6
pbc=[F, F, F] list_num_par=6 frozen=false iter=20000 energy=-1.26974174 Lattice="15.00000000 0.00000000 0.00000000 0.00000000 15.00000000 0.00000000 0.00000000 0.00000000 15.00000000" energy_frozen_part=0.00000000 Properties=species:S:1:pos:R:3:velocities:R:3:Z:I:1
H         9.67331609       8.00483277       7.09641224         0.00000000       0.00000000       0.00000000          1
H         9.39363562       9.78291275       9.23288259         0.00000000       0.00000000       0.00000000          1
H         6.65747298       9.22873381       9.33591076         0.00000000       0.00000000       0.00000000          1
H         7.81934150      10.08913017       6.94550387         0.00000000       0.00000000       0.00000000          1
H         8.51145534       7.14443883       9.48682944         0.00000000       0.00000000       0.00000000          1
H         6.93715905       7.45065241       7.19944865         0.00000000       0.00000000       0.00000000          1
6
pbc=[F, F, F] list_num_par=6 frozen=false iter=20000 energy=-1.26974174 Lattice="15.00000000 0.00000000 0.00000000 0.00000000 15.00000000 0.00000000 0.00000000 0.00000000 15.00000000" energy_frozen_part=0.00000000 Properties=species:S:1:pos:R:3:velocities:R:3:Z:I:1
H         9.66877803       8.00530007       7.10448119         0.00000000       0.00000000       0.00000000          1
H         9.38864941       9.77908345       9.24446179         0.00000000       0.00000000       0.00000000          1
H         6.65233641       9.22525884       9.34531138         0.00000000       0.00000000       0.00000000          1
H         7.81529192      10.09028262       6.95710186         0.00000000       0.00000000       0.00000000          1
H         8.50582130       7.14027949       9.49269054         0.00000000       0.00000000       0.00000000          1
H         6.93246352       7.45147648       7.20533279         0.00000000       0.00000000       0.00000000          1
6
pbc=[F, F, F] list_num_par=6 frozen=false iter=20000 energy=-1.26974174 Lattice="15.00000000 0.00000000 0.00000000 0.00000000 15.00000000 0.00000000 0.00000000 0.00000000 15.00000000" energy_frozen_part=0.00000000 Properties=species:S:1:pos:R:3:velocities:R:3:Z:I:1
H         9.66876532       8.00529305       7.10446634         0.00000000       0.00000000       0.00000000          1
H         9.38865765       9.77906434       9.24445752         0.00000000       0.00000000       0.00000000          1
H         6.65234737       9.22524940       9.34534011         0.00000000       0.00000000       0.00000000          1
H         7.81528483      10.09028449       6.95711730         0.00000000       0.00000000       0.00000000          1
H         8.50582497       7.14025913       9.49267986         0.00000000       0.00000000       0.00000000          1
H         6.93245088       7.45147981       7.20534633         0.00000000       0.00000000       0.00000000          1
6
pbc=[F, F, F] list_num_par=6 frozen=false iter=20000 energy=-1.26974174 Lattice="15.00000000 0.00000000 0.00000000 0.00000000 15.00000000 0.00000000 0.00000000 0.00000000 15.00000000" energy_frozen_part=0.00000000 Properties=species:S:1:pos:R:3:velocities:R:3:Z:I:1
H         9.67331634       8.00483268       7.09641782         0.00000000       0.00000000       0.00000000          1
H         9.39363396       9.78291835       9.23288381         0.00000000       0.00000000       0.00000000          1
H         6.65747891       9.22873887       9.33591243         0.00000000       0.00000000       0.00000000          1
H         7.81934396      10.08912806       6.94550093         0.00000000       0.00000000       0.00000000          1
H         8.51145114       7.14444221       9.48683405         0.00000000       0.00000000       0.00000000          1
H         6.93715658       7.45064817       7.19945377         0.00000000       0.00000000       0.00000000          1
6
pbc=[F, F, F] list_num_par=6 frozen=false iter=20000 energy=-1.26974174 Lattice="15.00000000 0.00000000 0.00000000 0.00000000 15.00000000 0.00000000 0.00000000 0.00000000 15.00000000" energy_frozen_part=0.00000000 Properties=species:S:1:pos:R:3:velocities:R:3:Z:I:1
H         9.66981960       8.00162533       7.10229235         0.00000000       0.00000000       0.00000000          1
H         9.38917135       9.78173725       9.23693945         0.00000000       0.00000000       0.00000000          1
H         6.65283721       9.22821111       9.33878149         0.00000000       0.00000000       0.00000000          1
H         7.81636241      10.08615901       6.94829416         0.00000000       0.00000000       0.00000000          1
H         8.50629209       7.14367356       9.49277847         0.00000000       0.00000000       0.00000000          1
H         6.93348288       7.44810229       7.20413139         0.00000000       0.00000000       0.00000000          1
6
pbc=[F, F, F] list_num_par=6 frozen=false iter=20000 energy=-1.26974174 Lattice="15.00000000 0.00000000 0.00000000 0.00000000 15.00000000 0.00000000 0.00000000 0.00000000 15.00000000" energy_frozen_part=0.00000000 Properties=species:S:1:pos:R:3:velocities:R:3:Z:I:1
H         9.66877412       8.00529482       7.10445560         0.00000000       0.00000000       0.00000000          1
H         9.38868405       9.77906553       9.24444502         0.00000000       0.00000000       0.00000000          1
H         6.65236890       9.22527688       9.34533067         0.00000000       0.00000000       0.00000000          1
H         7.81530705      10.09029598       6.95710882         0.00000000       0.00000000       0.00000000          1
H         8.50582903       7.14027491       9.49267933         0.00000000       0.00000000       0.00000000          1
H         6.93245388       7.45150045       7.20534105         0.00000000       0.00000000       0.00000000          1
6
pbc=[F, F, F] list_num_par=6 frozen=false iter=20000 energy=-1.26974174 Lattice="15.00000000 0.00000000 0.00000000 0.00000000 15.00000000 0.00000000 0.00000000 0.00000000 15.00000000" energy_frozen_part=0.00000000 Properties=species:S:1:pos:R:3:velocities:R:3:Z:I:1
H         9.67327309       8.00518883       7.09628841         0.00000000       0.00000000       0.00000000          1
H         9.39352676       9.78304474       9.23292899         0.00000000       0.00000000       0.00000000          1
H         6.65739670       9.22871249       9.33594904         0.00000000       0.00000000       0.00000000          1
H         7.81918121      10.08940444       6.94560020         0.00000000       0.00000000       0.00000000          1
H         8.51148835       7.14450073       9.48663345         0.00000000       0.00000000       0.00000000          1
H         6.93714567       7.45085611       7.19930257         0.00000000       0.00000000       0.00000000          1
6
pbc=[F, F, F] list_num_par=6 frozen=false iter=20000 energy=-1.26974174 Lattice="15.00000000 0.00000000 0.00000000 0.00000000 15.00000000 0.00000000 0.00000000 0.00000000 15.00000000" energy_frozen_part=0.00000000 Properties=species:S:1:pos:R:3:velocities:R:3:Z:I:1
H         9.67325213       8.00515510       7.09630048         0.00000000       0.00000000       0.00000000          1
H         9.39350944       9.78304124       9.23292205         0.00000000       0.00000000       0.00000000          1
H         6.65737909       9.22871443       9.33595224         0.00000000       0.00000000       0.00000000          1
H         7.81916277      10.08937233       6.94559386         0.00000000       0.00000000       0.00000000          1
H         8.51146320       7.14450131       9.48665857         0.00000000       0.00000000       0.00000000          1
H         6.93712080       7.45083100       7.19933131         0.00000000       0.00000000       0.00000000          1
6
pbc=[F, F, F] list_num_par=6 frozen=false iter=20000 energy=-1.26974174 Lattice="15.00000000 0.00000000 0.00000000 0.00000000 15.00000000 0.00000000 0.00000000 0.00000000 15.00000000" energy_frozen_part=0.00000000 Properties=species:S:1:pos:R:3:velocities:R:3:Z:I:1
H         9.66879764       8.00530997       7.10449646         0.00000000       0.00000000       0.00000000          1
H         9.38872616       9.77906687       9.24451347         0.00000000       0.00000000       0.00000000          1
H         6.65241179       9.22526171       9.34541362         0.00000000       0.00000000       0.00000000          1
H         7.81532440      10.09030983       6.95719301         0.00000000       0.00000000       0.00000000          1
H         8.50588963       7.14026722       9.49272342         0.00000000       0.00000000       0.00000000          1
H         6.93248315       7.45150856       7.20540599         0.00000000       0.00000000       0.00000000          1
6
pbc=[F, F, F] list_num_par=6 frozen=false iter=20000 energy=-1.26974174 Lattice="15.00000000 0.00000000 0.00000000 0.00000000 15.00000000 0.00000000 0.00000000 0.00000000 15.00000000" energy_frozen_part=0.00000000 Properties=species:S:1:pos:R:3:velocities:R:3:Z:I:1
H         9.66878161       8.00530470       7.10446436         0.00000000       0.00000000       0.00000000          1
H         9.38867842       9.77907693       9.24444925         0.00000000       0.00000000       0.00000000          1
H         6.65236833       9.22527271       9.34532794         0.00000000       0.00000000       0.00000000          1
H         7.81530210      10.09029569       6.95710879         0.00000000       0.00000000       0.00000000          1
H         8.50584027       7.14027826       9.49267553         0.00000000       0.00000000       0.00000000          1
H         6.93246712       7.45149938       7.20533487         0.00000000       0.00000000       0.00000000          1
6
pbc=[F, F, F] list_num_par=6 frozen=false iter=20000 energy=-1.26974174 Lattice="15.00000000 0.00000000 0.00000000 0.00000000 15.00000000 0.00000000 0.00000000 0.00000000 15.00000000" energy_frozen_part=0.00000000 Properties=species:S:1:pos:R:3:velocities:R:3:Z:I:1
H         9.67326025       8.00518955       7.09628822         0.00000000       0.00000000       0.00000000          1
H         9.39352370       9.78304562       9.23293035         0.00000000       0.00000000       0.00000000          1
H         6.65739893       9.22871750       9.33594872         0.00000000       0.00000000       0.00000000          1
H         7.81917943      10.08940184       6.94559902         0.00000000       0.00000000       0.00000000          1
H         8.51147873       7.14449663       9.48663403         0.00000000       0.00000000       0.00000000          1
H         6.93713854       7.45085582       7.19930840         0.00000000       0.00000000       0.00000000          1
6
pbc=[F, F, F] list_num_par=6 frozen=false iter=20000 energy=-1.26974174 Lattice="15.00000000 0.00000000 0.00000000 0.00000000 15.00000000 0.00000000 0.00000000 0.00000000 15.00000000" energy_frozen_part=0.00000000 Properties=species:S:1:pos:R:3:velocities:R:3:Z:I:1
H         9.67327552       8.00520374       7.09629865         0.00000000       0.00000000       0.00000000          1
H         9.39351499       9.78306413       9.23293990         0.00000000       0.00000000       0.00000000          1
H         6.65739232       9.22872053       9.33594310         0.00000000       0.00000000       0.00000000          1
H         7.81918140      10.08940986       6.94559890         0.00000000       0.00000000       0.00000000          1
H         8.51148150       7.14451413       9.48664569         0.00000000       0.00000000       0.00000000          1
H         6.93715641       7.45086038       7.19930738         0.00000000       0.00000000       0.00000000          1
6
pbc=[F, F, F] list_num_par=6 frozen=false iter=20000 energy=-1.26974174 Lattice="15.00000000 0.00000000 0.00000000 0.00000000 15.00000000 0.00000000 0.00000000 0.00000000 15.00000000" energy_frozen_part=0.00000000 Properties=species:S:1:pos:R:3:velocities:R:3:Z:I:1
H         9.66877129       8.00527908       7.10447151         0.00000000       0.00000000       0.00000000          1
H         9.38863884       9.77904842       9.24446493         0.00000000       0.00000000       0.00000000          1
H         6.65233652       9.22522038       9.34532317         0.00000000       0.00000000       0.00000000          1
H         7.81528188      10.09026001       6.95711046         0.00000000       0.00000000       0.00000000          1
H         8.50582802       7.14024116       9.49268059         0.00000000       0.00000000       0.00000000          1
H         6.93246060       7.45145574       7.20533477         0.00000000       0.00000000       0.00000000          1
6
pbc=[F, F, F] list_num_par=6 frozen=false iter=20000 energy=-1.26974174 Lattice="15.00000000 0.00000000 0.00000000 0.00000000 15.00000000 0.00000000 0.00000000 0.00000000 15.00000000" energy_frozen_part=0.00000000 Properties=species:S:1:pos:R:3:velocities:R:3:Z:I:1
H         9.66880080       8.00531848       7.10447648         0.00000000       0.00000000       0.00000000          1
H         9.38873414       9.77908418       9.24447547         0.00000000       0.00000000       0.00000000          1
H         6.65242393       9.22526803       9.34540367         0.00000000       0.00000000       0.00000000          1
H         7.81531986      10.09030686       6.95716492         0.00000000       0.00000000       0.00000000          1
H         8.50590517       7.14028142       9.49271815         0.00000000       0.00000000       0.00000000          1
H         6.93249574       7.45149930       7.20540471         0.00000000       0.00000000       0.00000000          1
6
pbc=[F, F, F] list_num_par=6 frozen=false iter=20000 energy=-1.26974174 Lattice="15.00000000 0.00000000 0.00000000 0.00000000 15.00000000 0.00000000 0.00000000 0.00000000 15.00000000" energy_frozen_part=0.00000000 Properties=species:S:1:pos:R:3:velocities:R:3:Z:I:1
H         9.66969152       8.00100669       7.10265940         0.00000000       0.00000000       0.00000000          1
H         9.38894232       9.78089595       9.23747424         0.00000000       0.00000000       0.00000000          1
H         6.65236851       9.22836780       9.33824696         0.00000000       0.00000000       0.00000000          1
H         7.81707000      10.08625647       6.94831402         0.00000000       0.00000000       0.00000000          1
H         8.50499224       7.14312396       9.49259365         0.00000000       0.00000000       0.00000000          1
H         6.93312283       7.44848094       7.20342662         0.00000000       0.00000000       0.00000000          1
6
pbc=[F, F, F] list_num_par=6 frozen=false iter=20000 energy=-1.26974174 Lattice="15.00000000 0.00000000 0.00000000 0.00000000 15.00000000 0.00000000 0.00000000 0.00000000 15.00000000" energy_frozen_part=0.00000000 Properties=species:S:1:pos:R:3:velocities:R:3:Z:I:1
H         9.67333059       8.00456866       7.09603233         0.00000000       0.00000000       0.00000000          1
H         9.39433600       9.78255915       9.23266744         0.00000000       0.00000000       0.00000000          1
H         6.65811321       9.22879442       9.33619130         0.00000000       0.00000000       0.00000000          1
H         7.81965261      10.08916114       6.94560334         0.00000000       0.00000000       0.00000000          1
H         8.51179212       7.14420312       9.48662020         0.00000000       0.00000000       0.00000000          1
H         6.93710896       7.45080338       7.19955756         0.00000000       0.00000000       0.00000000          1
6
pbc=[F, F, F] list_num_par=6 frozen=false iter=20000 energy=-1.26974174 Lattice="15.00000000 0.00000000 0.00000000 0.00000000 15.00000000 0.00000000 0.00000000 0.00000000 15.00000000" energy_frozen_part=0.00000000 Properties=species:S:1:pos:R:3:velocities:R:3:Z:I:1
H         9.66878441       8.00530486       7.10446957         0.00000000       0.00000000       0.00000000          1
H         9.38865898       9.77908237       9.24445236         0.00000000       0.00000000       0.00000000          1
H         6.65234460       9.22526058       9.34531402         0.00000000       0.00000000       0.00000000          1
H         7.81529312      10.09028726       6.95710050         0.00000000       0.00000000       0.00000000          1
H         8.50583261       7.14027557       9.49268008         0.00000000       0.00000000       0.00000000          1
H         6.93246912       7.45148668       7.20533126         0.00000000       0.00000000       0.00000000          1
6
pbc=[F, F, F] list_num_par=6 frozen=false iter=20000 energy=-1.26974174 Lattice="15.00000000 0.00000000 0.00000000 0.00000000 15.00000000 0.00000000 0.00000000 0.00000000 15.00000000" energy_frozen_part=0.00000000 Properties=species:S:1:pos:R:3:velocities:R:3:Z:I:1
H         9.66876830       8.00529243       7.10446725         0.00000000       0.00000000       0.00000000          1
H         9.38866235       9.77906525       9.24445198         0.00000000       0.00000000       0.00000000          1
H         6.65234457       9.22526164       9.34532487         0.00000000       0.00000000       0.00000000          1
H         7.81529170      10.09028264       6.95710835         0.00000000       0.00000000       0.00000000          1
H         8.50582554       7.14027087       9.49268286         0.00000000       0.00000000       0.00000000          1
H         6.93245840       7.45148243       7.20534304         0.00000000       0.00000000       0.00000000          1
6
pbc=[F, F, F] list_num_par=6 frozen=false iter=20000 energy=-1.26974174 Lattice="15.00000000 0.00000000 0.00000000 0.00000000 15.00000000 0.00000000 0.00000000 0.00000000 15.00000000" energy_frozen_part=0.00000000 Properties=species:S:1:pos:R:3:velocities:R:3:Z:I:1
H         9.67331332       8.00483618       7.09641311         0.00000000       0.00000000       0.00000000          1
H         9.39363201       9.78290842       9.23288667         0.00000000       0.00000000       0.00000000          1
H         6.65747523       9.22872154       9.33591602         0.00000000       0.00000000       0.00000000          1
H         7.81933361      10.08912822       6.94550228         0.00000000       0.00000000       0.00000000          1
H         8.51144613       7.14443168       9.48682445         0.00000000       0.00000000       0.00000000          1
H         6.93715739       7.45065259       7.19943868         0.00000000       0.00000000       0.00000000          1
6
pbc=[F, F, F] list_num_par=6 frozen=false iter=20000 energy=-1.26974174 Lattice="15.00000000 0.00000000 0.00000000 0.00000000 15.00000000 0.00000000 0.00000000 0.00000000 15.00000000" energy_frozen_part=0.00000000 Properties=species:S:1:pos:R:3:velocities:R:3:Z:I:1
H         9.66980990       8.00158709       7.10226962         0.00000000       0.00000000       0.00000000          1
H         9.38917968       9.78174257       9.23688251         0.00000000       0.00000000       0.00000000          1
H         6.65284445       9.22820335       9.33876801         0.00000000       0.00000000       0.00000000          1
H         7.81634610      10.08611063       6.94825613         0.00000000       0.00000000       0.00000000          1
H         8.50631162       7.14368811       9.49278164         0.00000000       0.00000000       0.00000000          1
H         6.93347983       7.44805537       7.20414912         0.00000000       0.00000000       0.00000000          1
6
pbc=[F, F, F] list_num_par=6 frozen=false iter=20000 energy=-1.26974174 Lattice="15.00000000 0.00000000 0.00000000 0.00000000 15.00000000 0.00000000 0.00000000 0.00000000 15.00000000" energy_frozen_part=0.00000000 Properties=species:S:1:pos:R:3:velocities:R:3:Z:I:1
H         9.66969947       8.00100602       7.10266133         0.00000000       0.00000000       0.00000000          1
H         9.38893997       9.78090125       9.23747941         0.00000000       0.00000000       0.00000000          1
H         6.65236210       9.22837636       9.33824577         0.00000000       0.00000000       0.00000000          1
H         7.81706901      10.08625241       6.94831234         0.00000000       0.00000000       0.00000000          1
H         8.50499093       7.14313231       9.49259304         0.00000000       0.00000000       0.00000000          1
H         6.93312174       7.44848110       7.20342752         0.00000000       0.00000000       0.00000000          1
6
pbc=[F, F, F] list_num_par=6 frozen=false iter=20000 energy=-1.26974174 Lattice="15.00000000 0.00000000 0.00000000 0.00000000 15.00000000 0.00000000 0.00000000 0.00000000 15.00000000" energy_frozen_part=0.00000000 Properties=species:S:1:pos:R:3:velocities:R:3:Z:I:1
H         9.67327161       8.00516529       7.09630018         0.00000000       0.00000000       0.00000000          1
H         9.39353032       9.78305900       9.23291522         0.00000000       0.00000000       0.00000000          1
H         6.65740406       9.22872659       9.33595375         0.00000000       0.00000000       0.00000000          1
H         7.81918329      10.08937877       6.94559245         0.00000000       0.00000000       0.00000000          1
H         8.51148924       7.14451675       9.48666828         0.00000000       0.00000000       0.00000000          1
H         6.93714717       7.45083568       7.19933548         0.00000000       0.00000000       0.00000000          1
6
pbc=[F, F, F] list_num_par=6 frozen=false iter=20000 energy=-1.26974174 Lattice="15.00000000 0.00000000 0.00000000 0.00000000 15.00000000 0.00000000 0.00000000 0.00000000 15.00000000" energy_frozen_part=0.00000000 Properties=species:S:1:pos:R:3:velocities:R:3:Z:I:1
H         9.67328392       8.00485189       7.09634463         0.00000000       0.00000000       0.00000000          1
H         9.39361143       9.78289512       9.23284342         0.00000000       0.00000000       0.00000000          1
H         6.65746157       9.22870404       9.33588215         0.00000000       0.00000000       0.00000000          1
H         7.81930582      10.08914753       6.94547895         0.00000000       0.00000000       0.00000000          1
H         8.51144034       7.14441524       9.48675478         0.00000000       0.00000000       0.00000000          1
H         6.93713309       7.45066226       7.19938184         0.00000000       0.00000000       0.00000000          1
6
pbc=[F, F, F] list_num_par=6 frozen=false iter=20000 energy=-1.26974174 Lattice="15.00000000 0.00000000 0.00000000 0.00000000 15.00000000 0.00000000 0.00000000 0.00000000 15.00000000" energy_frozen_part=0.00000000 Properties=species:S:1:pos:R:3:velocities:R:3:Z:I:1
H         9.66877576       8.00528839       7.10446857         0.00000000       0.00000000       0.00000000          1
H         9.38867253       9.77906490       9.24445660         0.00000000       0.00000000       0.00000000          1
H         6.65235579       9.22526571       9.34532036         0.00000000       0.00000000       0.00000000          1
H         7.81530658      10.09028851       6.95711105         0.00000000       0.00000000       0.00000000          1
H         8.50582165       7.14026366       9.49267406         0.00000000       0.00000000       0.00000000          1
H         6.93246057       7.45149055       7.20532570         0.00000000       0.00000000       0.00000000          1
6
pbc=[F, F, F] list_num_par=6 frozen=false iter=20000 energy=-1.26974174 Lattice="15.00000000 0.00000000 0.00000000 0.00000000 15.00000000 0.00000000 0.00000000 0.00000000 15.00000000" energy_frozen_part=0.00000000 Properties=species:S:1:pos:R:3:velocities:R:3:Z:I:1
H         9.67326664       8.00515782       7.09630902         0.00000000       0.00000000       0.00000000          1
H         9.39353034       9.78306217       9.23291440         0.00000000       0.00000000       0.00000000          1
H         6.65740374       9.22873001       9.33595379         0.00000000       0.00000000       0.00000000          1
H         7.81918264      10.08937350       6.94558731         0.00000000       0.00000000       0.00000000          1
H         8.51148918       7.14452412       9.48668323         0.00000000       0.00000000       0.00000000          1
H         6.93714302       7.45083262       7.19934320         0.00000000       0.00000000       0.00000000          1
6
pbc=[F, F, F] list_num_par=6 frozen=false iter=20000 energy=-1.26974174 Lattice="15.00000000 0.00000000 0.00000000 0.00000000 15.00000000 0.00000000 0.00000000 0.00000000 15.00000000" energy_frozen_part=0.00000000 Properties=species:S:1:pos:R:3:velocities:R:3:Z:I:1
H         9.67329904       8.00484019       7.09633931         0.00000000       0.00000000       0.00000000          1
H         9.39364156       9.78288389       9.23284091         0.00000000       0.00000000       0.00000000          1
H         6.65748792       9.22871571       9.33588680         0.00000000       0.00000000       0.00000000          1
H         7.81933631      10.08915362       6.94548016         0.00000000       0.00000000       0.00000000          1
H         8.51145098       7.14441069       9.48674418         0.00000000       0.00000000       0.00000000          1
H         6.93714137       7.45067835       7.19937876         0.00000000       0.00000000       0.00000000          1
6
pbc=[F, F, F] list_num_par=6 frozen=false iter=20000 energy=-1.26974174 Lattice="15.00000000 0.00000000 0.00000000 0.00000000 15.00000000 0.00000000 0.00000000 0.00000000 15.00000000" energy_frozen_part=0.00000000 Properties=species:S:1:pos:R:3:velocities:R:3:Z:I:1
H         9.66980517       8.00161389       7.10227967         0.00000000       0.00000000       0.00000000          1
H         9.38918385       9.78172184       9.23693591         0.00000000       0.00000000       0.00000000          1
H         6.65285260       9.22818637       9.33879955         0.00000000       0.00000000       0.00000000          1
H         7.81634652      10.08614625       6.94831141         0.00000000       0.00000000       0.00000000          1
H         8.50631166       7.14365847       9.49277470         0.00000000       0.00000000       0.00000000          1
H         6.93347848       7.44808105       7.20414552         0.00000000       0.00000000       0.00000000          1
6
pbc=[F, F, F] list_num_par=6 frozen=false iter=20000 energy=-1.26974174 Lattice="15.00000000 0.00000000 0.00000000 0.00000000 15.00000000 0.00000000 0.00000000 0.00000000 15.00000000" energy_frozen_part=0.00000000 Properties=species:S:1:pos:R:3:velocities:R:3:Z:I:1
H         9.67329415       8.00481417       7.09639429         0.00000000       0.00000000       0.00000000          1
H         9.39366939       9.78289912       9.23286060         0.00000000       0.00000000       0.00000000          1
H         6.65750551       9.22876722       9.33593890         0.00000000       0.00000000       0.00000000          1
H         7.81934418      10.08913921       6.94550335         0.00000000       0.00000000       0.00000000          1
H         8.51144639       7.14443718       9.48682589         0.00000000       0.00000000       0.00000000          1
H         6.93713069       7.45068177       7.19946390         0.00000000       0.00000000       0.00000000          1
6
pbc=[F, F, F] list_num_par=6 frozen=false iter=20000 energy=-1.26974174 Lattice="15.00000000 0.00000000 0.00000000 0.00000000 15.00000000 0.00000000 0.00000000 0.00000000 15.00000000" energy_frozen_part=0.00000000 Properties=species:S:1:pos:R:3:velocities:R:3:Z:I:1
H         9.67328698       8.00486846       7.09634892         0.00000000       0.00000000       0.00000000          1
H         9.39361662       9.78290967       9.23285193         0.00000000       0.00000000       0.00000000          1