6
pbc=[F, F, F] list_num_par=6 frozen=false iter=20000 energy=-1.26974174 Lattice="15.00000000 0.00000000 0.00000000 0.00000000 15.00000000 0.00000000 0.00000000 0.00000000 15.00000000" energy_frozen_part=0.00000000 Properties=species:S:1:pos:R:3:velocities:R:3:Z:I:1
H         8.20365246       6.26563495       4.62570834         0.00000000       0.00000000       0.00000000          1
H         9.06307252       5.74393497       7.23214498         0.00000000       0.00000000       0.00000000          1
H         7.28872897       7.84497659       6.74062916         0.00000000       0.00000000       0.00000000          1
H        10.84319606       6.80959775       5.36136757         0.00000000       0.00000000       0.00000000          1
H         9.06885412       8.91065159       4.86986164         0.00000000       0.00000000       0.00000000          1
H         9.92828133       8.38894213       7.47628678         0.00000000       0.00000000       0.00000000          1
6
pbc=[F, F, F] list_num_par=6 frozen=false iter=20000 energy=-1.26974174 Lattice="15.00000000 0.00000000 0.00000000 0.00000000 15.00000000 0.00000000 0.00000000 0.00000000 15.00000000" energy_frozen_part=0.00000000 Properties=species:S:1:pos:R:3:velocities:R:3:Z:I:1
H         8.20944781       6.26977434       4.62532828         0.00000000       0.00000000       0.00000000          1
H         9.06489744       5.74262342       7.23197541         0.00000000       0.00000000       0.00000000          1
H         7.29167204       7.84498327       6.74208962         0.00000000       0.00000000       0.00000000          1
H        10.84799074       6.81176019       5.36601188         0.00000000       0.00000000       0.00000000          1
H         9.07476355       8.91412990       4.87613304         0.00000000       0.00000000       0.00000000          1
H         9.93021854       8.38698095       7.48277494         0.00000000       0.00000000       0.00000000          1
6
pbc=[F, F, F] list_num_par=6 frozen=false iter=20000 energy=-1.26974174 Lattice="15.00000000 0.00000000 0.00000000 0.00000000 15.00000000 0.00000000 0.00000000 0.00000000 15.00000000" energy_frozen_part=0.00000000 Properties=species:S:1:pos:R:3:velocities:R:3:Z:I:1
H         8.20366437       6.26567294       4.62578036         0.00000000       0.00000000       0.00000000          1
H         9.06324578       5.74397775       7.23216643         0.00000000       0.00000000       0.00000000          1
H         7.28884258       7.84500118       6.74075906         0.00000000       0.00000000       0.00000000          1
H        10.84324518       6.80966743       5.36128919         0.00000000       0.00000000       0.00000000          1
H         9.06884113       8.91069260       4.86988541         0.00000000       0.00000000       0.00000000          1
H         9.92843004       8.38899930       7.47626446         0.00000000       0.00000000       0.00000000          1
6
pbc=[F, F, F] list_num_par=6 frozen=false iter=20000 energy=-1.26974174 Lattice="15.00000000 0.00000000 0.00000000 0.00000000 15.00000000 0.00000000 0.00000000 0.00000000 15.00000000" energy_frozen_part=0.00000000 Properties=species:S:1:pos:R:3:velocities:R:3:Z:I:1
H         8.20365690       6.26568300       4.62579510         0.00000000       0.00000000       0.00000000          1
H         9.06324196       5.74399076       7.23218251         0.00000000       0.00000000       0.00000000          1
H         7.28885197       7.84502534       6.74076411         0.00000000       0.00000000       0.00000000          1
H        10.84323232       6.80967811       5.36128665         0.00000000       0.00000000       0.00000000          1
H         9.06884155       8.91071205       4.86987209         0.00000000       0.00000000       0.00000000          1
H         9.92843786       8.38901915       7.47625503         0.00000000       0.00000000       0.00000000          1
6
pbc=[F, F, F] list_num_par=6 frozen=false iter=20000 energy=-1.26974174 Lattice="15.00000000 0.00000000 0.00000000 0.00000000 15.00000000 0.00000000 0.00000000 0.00000000 15.00000000" energy_frozen_part=0.00000000 Properties=species:S:1:pos:R:3:velocities:R:3:Z:I:1
H        12.57531471       9.21599848      12.09349266         0.00000000       0.00000000       0.00000000          1
H        14.56528846      11.17566309      12.15667016         0.00000000       0.00000000       0.00000000          1
H        10.87147455      10.89985132      13.53080586         0.00000000       0.00000000       0.00000000          1
H        12.03237697      11.78896590      11.15045398         0.00000000       0.00000000       0.00000000          1
H        13.40438764      10.28654867      14.53702265         0.00000000       0.00000000       0.00000000          1
H        12.86145624      12.85952259      13.59397825         0.00000000       0.00000000       0.00000000          1
6
pbc=[F, F, F] list_num_par=6 frozen=false iter=20000 energy=-1.26974174 Lattice="15.00000000 0.00000000 0.00000000 0.00000000 15.00000000 0.00000000 0.00000000 0.00000000 15.00000000" energy_frozen_part=0.00000000 Properties=species:S:1:pos:R:3:velocities:R:3:Z:I:1
H         8.20963443       6.26981137       4.62525241         0.00000000       0.00000000       0.00000000          1
H         9.06505966       5.74272962       7.23192039         0.00000000       0.00000000       0.00000000          1
H         7.29171219       7.84499121       6.74198413         0.00000000       0.00000000       0.00000000          1
H        10.84813461       6.81196192       5.36599997         0.00000000       0.00000000       0.00000000          1
H         9.07479315       8.91421961       4.87606357         0.00000000       0.00000000       0.00000000          1
H         9.93021347       8.38713540       7.48272829         0.00000000       0.00000000       0.00000000          1
6
pbc=[F, F, F] list_num_par=6 frozen=false iter=20000 energy=-1.26974174 Lattice="15.00000000 0.00000000 0.00000000 0.00000000 15.00000000 0.00000000 0.00000000 0.00000000 15.00000000" energy_frozen_part=0.00000000 Properties=species:S:1:pos:R:3:velocities:R:3:Z:I:1
H         8.20369676       6.26563010       4.62556867         0.00000000       0.00000000       0.00000000          1
H         9.06306185       5.74393876       7.23202651         0.00000000       0.00000000       0.00000000          1
H         7.28874322       7.84499327       6.74046938         0.00000000       0.00000000       0.00000000          1
H        10.84322175       6.80959043       5.36127826         0.00000000       0.00000000       0.00000000          1
H         9.06890021       8.91064352       4.86971799         0.00000000       0.00000000       0.00000000          1
H         9.92827744       8.38894858       7.47617569         0.00000000       0.00000000       0.00000000          1
6
pbc=[F, F, F] list_num_par=6 frozen=false iter=20000 energy=-1.26974174 Lattice="15.00000000 0.00000000 0.00000000 0.00000000 15.00000000 0.00000000 0.00000000 0.00000000 15.00000000" energy_frozen_part=0.00000000 Properties=species:S:1:pos:R:3:velocities:R:3:Z:I:1
H         8.20365979       6.26564761       4.62569701         0.00000000       0.00000000       0.00000000          1
H         9.06308497       5.74394148       7.23213357         0.00000000       0.00000000       0.00000000          1
H         7.28872708       7.84497786       6.74062331         0.00000000       0.00000000       0.00000000          1
H        10.84320178       6.80962649       5.36135959         0.00000000       0.00000000       0.00000000          1
H         9.06884009       8.91066874       4.86984588         0.00000000       0.00000000       0.00000000          1
H         9.92827046       8.38896531       7.47628273         0.00000000       0.00000000       0.00000000          1
6
pbc=[F, F, F] list_num_par=6 frozen=false iter=20000 energy=-1.26974174 Lattice="15.00000000 0.00000000 0.00000000 0.00000000 15.00000000 0.00000000 0.00000000 0.00000000 15.00000000" energy_frozen_part=0.00000000 Properties=species:S:1:pos:R:3:velocities:R:3:Z:I:1
H         8.20965039       6.26980228       4.62527170         0.00000000       0.00000000       0.00000000          1
H         9.06507017       5.74270190       7.23193770         0.00000000       0.00000000       0.00000000          1
H         7.29172534       7.84496291       6.74201784         0.00000000       0.00000000       0.00000000          1
H        10.84814150       6.81194591       5.36601983         0.00000000       0.00000000       0.00000000          1
H         9.07479415       8.91421184       4.87609498         0.00000000       0.00000000       0.00000000          1
H         9.93022673       8.38710410       7.48275997         0.00000000       0.00000000       0.00000000          1
6
pbc=[F, F, F] list_num_par=6 frozen=false iter=20000 energy=-1.26974174 Lattice="15.00000000 0.00000000 0.00000000 0.00000000 15.00000000 0.00000000 0.00000000 0.00000000 15.00000000" energy_frozen_part=0.00000000 Properties=species:S:1:pos:R:3:velocities:R:3:Z:I:1
H         8.20364255       6.26564934       4.62565011         0.00000000       0.00000000       0.00000000          1
H         9.06306507       5.74399303       7.23209227         0.00000000       0.00000000       0.00000000          1
H         7.28874845       7.84505436       6.74053404         0.00000000       0.00000000       0.00000000          1
H        10.84319940       6.80959212       5.36129238         0.00000000       0.00000000       0.00000000          1
H         9.06887865       8.91065462       4.86972397         0.00000000       0.00000000       0.00000000          1
H         9.92829899       8.38899604       7.47617056         0.00000000       0.00000000       0.00000000          1
6
pbc=[F, F, F] list_num_par=6 frozen=false iter=20000 energy=-1.26974174 Lattice="15.00000000 0.00000000 0.00000000 0.00000000 15.00000000 0.00000000 0.00000000 0.00000000 15.00000000" energy_frozen_part=0.00000000 Properties=species:S:1:pos:R:3:velocities:R:3:Z:I:1
H         8.20968954       6.27002192       4.62502888         0.00000000       0.00000000       0.00000000          1
H         9.06484638       5.74252539       7.23170281         0.00000000       0.00000000       0.00000000          1
H         7.29160604       7.84489616       6.74189721         0.00000000       0.00000000       0.00000000          1
H        10.84812636       6.81199292       5.36610945         0.00000000       0.00000000       0.00000000          1
H         9.07488350       8.91437299       4.87631067         0.00000000       0.00000000       0.00000000          1
H         9.93003656       8.38687692       7.48297855         0.00000000       0.00000000       0.00000000          1
6
pbc=[F, F, F] list_num_par=6 frozen=false iter=20000 energy=-1.26974174 Lattice="15.00000000 0.00000000 0.00000000 0.00000000 15.00000000 0.00000000 0.00000000 0.00000000 15.00000000" energy_frozen_part=0.00000000 Properties=species:S:1:pos:R:3:velocities:R:3:Z:I:1
H         8.20363339       6.26568347       4.62578789         0.00000000       0.00000000       0.00000000          1
H         9.06321395       5.74399109       7.23217463         0.00000000       0.00000000       0.00000000          1
H         7.28882231       7.84501720       6.74076500         0.00000000       0.00000000       0.00000000          1
H        10.84321352       6.80967364       5.36130241         0.00000000       0.00000000       0.00000000          1
H         9.06882895       8.91070422       4.86989074         0.00000000       0.00000000       0.00000000          1
H         9.92840631       8.38900775       7.47627421         0.00000000       0.00000000       0.00000000          1
6
pbc=[F, F, F] list_num_par=6 frozen=false iter=20000 energy=-1.26974174 Lattice="15.00000000 0.00000000 0.00000000 0.00000000 15.00000000 0.00000000 0.00000000 0.00000000 15.00000000" energy_frozen_part=0.00000000 Properties=species:S:1:pos:R:3:velocities:R:3:Z:I:1
H         8.20970378       6.27001285       4.62502352         0.00000000       0.00000000       0.00000000          1
H         9.06484543       5.74251920       7.23169487         0.00000000       0.00000000       0.00000000          1
H         7.29160224       7.84489536       6.74189452         0.00000000       0.00000000       0.00000000          1
H        10.84813380       6.81199507       5.36610663         0.00000000       0.00000000       0.00000000          1
H         9.07489052       8.91436773       4.87630847         0.00000000       0.00000000       0.00000000          1
H         9.93004148       8.38686677       7.48298417         0.00000000       0.00000000       0.00000000          1
6
pbc=[F, F, F] list_num_par=6 frozen=false iter=20000 energy=-1.26974174 Lattice="15.00000000 0.00000000 0.00000000 0.00000000 15.00000000 0.00000000 0.00000000 0.00000000 15.00000000" energy_frozen_part=0.00000000 Properties=species:S:1:pos:R:3:velocities:R:3:Z:I:1
H         8.20362582       6.26567922       4.62579420         0.00000000       0.00000000       0.00000000          1
H         9.06322125       5.74399021       7.23216794         0.00000000       0.00000000       0.00000000          1
H         7.28881532       7.84501255       6.74077118         0.00000000       0.00000000       0.00000000          1
H        10.84320916       6.80968477       5.36129039         0.00000000       0.00000000       0.00000000          1
H         9.06880347       8.91070774       4.86989090         0.00000000       0.00000000       0.00000000          1
H         9.92840116       8.38901187       7.47626889         0.00000000       0.00000000       0.00000000          1
6
pbc=[F, F, F] list_num_par=6 frozen=false iter=20000 energy=-1.26974174 Lattice="15.00000000 0.00000000 0.00000000 0.00000000 15.00000000 0.00000000 0.00000000 0.00000000 15.00000000" energy_frozen_part=0.00000000 Properties=species:S:1:pos:R:3:velocities:R:3:Z:I:1
H         8.20948416       6.26979284       4.62533020         0.00000000       0.00000000       0.00000000          1
H         9.06491069       5.74263377       7.23197782         0.00000000       0.00000000       0.00000000          1
H         7.29162990       7.84495857       6.74209635         0.00000000       0.00000000       0.00000000          1
H        10.84799904       6.81183804       5.36605235         0.00000000       0.00000000       0.00000000          1
H         9.07472049       8.91416315       4.87616909         0.00000000       0.00000000       0.00000000          1
H         9.93015111       8.38700406       7.48281850         0.00000000       0.00000000       0.00000000          1
6
pbc=[F, F, F] list_num_par=6 frozen=false iter=20000 energy=-1.26974174 Lattice="15.00000000 0.00000000 0.00000000 0.00000000 15.00000000 0.00000000 0.00000000 0.00000000 15.00000000" energy_frozen_part=0.00000000 Properties=species:S:1:pos:R:3:velocities:R:3:Z:I:1
H         8.20365408       6.26563121       4.62571076         0.00000000       0.00000000       0.00000000          1
H         9.06307101       5.74393892       7.23214493         0.00000000       0.00000000       0.00000000          1
H         7.28872591       7.84497533       6.74062853         0.00000000       0.00000000       0.00000000          1
H        10.84319402       6.80960477       5.36136585         0.00000000       0.00000000       0.00000000          1
H         9.06884310       8.91064765       4.86984302         0.00000000       0.00000000       0.00000000          1
H         9.92827240       8.38895595       7.47627978         0.00000000       0.00000000       0.00000000          1
6
pbc=[F, F, F] list_num_par=6 frozen=false iter=20000 energy=-1.26974174 Lattice="15.00000000 0.00000000 0.00000000 0.00000000 15.00000000 0.00000000 0.00000000 0.00000000 15.00000000" energy_frozen_part=0.00000000 Properties=species:S:1:pos:R:3:velocities:R:3:Z:I:1
H         8.20368886       6.26560905       4.62558829         0.00000000       0.00000000       0.00000000          1
H         9.06308755       5.74392782       7.23203758         0.00000000       0.00000000       0.00000000          1
H         7.28874045       7.84497098       6.74047753         0.00000000       0.00000000       0.00000000          1
H        10.84321938       6.80958924       5.36126945         0.00000000       0.00000000       0.00000000          1
H         9.06888258       8.91062769       4.86971525         0.00000000       0.00000000       0.00000000          1
H         9.92826877       8.38895284       7.47616912         0.00000000       0.00000000       0.00000000          1
6
pbc=[F, F, F] list_num_par=6 frozen=false iter=20000 energy=-1.26974174 Lattice="15.00000000 0.00000000 0.00000000 0.00000000 15.00000000 0.00000000 0.00000000 0.00000000 15.00000000" energy_frozen_part=0.00000000 Properties=species:S:1:pos:R:3:velocities:R:3:Z:I:1
H         8.20365824       6.26564131       4.62563209         0.00000000       0.00000000       0.00000000          1
H         9.06307041       5.74396646       7.23207757         0.00000000       0.00000000       0.00000000          1
H         7.28873851       7.84501628       6.74053232         0.00000000       0.00000000       0.00000000          1
H        10.84319676       6.80960058       5.36129614         0.00000000       0.00000000       0.00000000          1
H         9.06886534       8.91065776       4.86975180         0.00000000       0.00000000       0.00000000          1
H         9.92828662       8.38898377       7.47619061         0.00000000       0.00000000       0.00000000          1
6
pbc=[F, F, F] list_num_par=6 frozen=false iter=20000 energy=-1.26974174 Lattice="15.00000000 0.00000000 0.00000000 0.00000000 15.00000000 0.00000000 0.00000000 0.00000000 15.00000000" energy_frozen_part=0.00000000 Properties=species:S:1:pos:R:3:velocities:R:3:Z:I:1
H         8.20969638       6.27001367       4.62503607         0.00000000       0.00000000       0.00000000          1
H         9.06484745       5.74253668       7.23170966         0.00000000       0.00000000       0.00000000          1
H         7.29160455       7.84490960       6.74189910         0.00000000       0.00000000       0.00000000          1
H        10.84812573       6.81199675       5.36612285         0.00000000       0.00000000       0.00000000          1
H         9.07488401       8.91436896       4.87630304         0.00000000       0.00000000       0.00000000          1
H         9.93003742       8.38688595       7.48298133         0.00000000       0.00000000       0.00000000          1
6
pbc=[F, F, F] list_num_par=6 frozen=false iter=20000 energy=-1.26974174 Lattice="15.00000000 0.00000000 0.00000000 0.00000000 15.00000000 0.00000000 0.00000000 0.00000000 15.00000000" energy_frozen_part=0.00000000 Properties=species:S:1:pos:R:3:velocities:R:3:Z:I:1
H         8.20962679       6.26981066       4.62526610         0.00000000       0.00000000       0.00000000          1
H         9.06494917       5.74268732       7.23196248         0.00000000       0.00000000       0.00000000          1
H         7.29172207       7.84503127       6.74196849         0.00000000       0.00000000       0.00000000          1
H        10.84812430       6.81183437       5.36609140         0.00000000       0.00000000       0.00000000          1
H         9.07489514       8.91418056       4.87609660         0.00000000       0.00000000       0.00000000          1
H         9.93021293       8.38705884       7.48279458         0.00000000       0.00000000       0.00000000          1
6
pbc=[F, F, F] list_num_par=6 frozen=false iter=20000 energy=-1.26974174 Lattice="15.00000000 0.00000000 0.00000000 0.00000000 15.00000000 0.00000000 0.00000000 0.00000000 15.00000000" energy_frozen_part=0.00000000 Properties=species:S:1:pos:R:3:velocities:R:3:Z:I:1
H         8.20369325       6.26562471       4.62558026         0.00000000       0.00000000       0.00000000          1
H         9.06307601       5.74394777       7.23204035         0.00000000       0.00000000       0.00000000          1
H         7.28874225       7.84498876       6.74047455         0.00000000       0.00000000       0.00000000          1
H        10.84322936       6.80959560       5.36128006         0.00000000       0.00000000       0.00000000          1
H         9.06888805       8.91064219       4.86971345         0.00000000       0.00000000       0.00000000          1
H         9.92827311       8.38896191       7.47616388         0.00000000       0.00000000       0.00000000          1
6
pbc=[F, F, F] list_num_par=6 frozen=false iter=20000 energy=-1.26974174 Lattice="15.00000000 0.00000000 0.00000000 0.00000000 15.00000000 0.00000000 0.00000000 0.00000000 15.00000000" energy_frozen_part=0.00000000 Properties=species:S:1:pos:R:3:velocities:R:3:Z:I:1
H         8.20362807       6.26566445       4.62579671         0.00000000       0.00000000       0.00000000          1
H         9.06324978       5.74398711       7.23217483         0.00000000       0.00000000       0.00000000          1
H         7.28882112       7.84499420       6.74078004         0.00000000       0.00000000       0.00000000          1
H        10.84321501       6.80969946       5.36126323         0.00000000       0.00000000       0.00000000          1
H         9.06878120       8.91069949       4.86986934         0.00000000       0.00000000       0.00000000          1
H         9.92840854       8.38901900       7.47624461         0.00000000       0.00000000       0.00000000          1
6
pbc=[F, F, F] list_num_par=6 frozen=false iter=20000 energy=-1.26974174 Lattice="15.00000000 0.00000000 0.00000000 0.00000000 15.00000000 0.00000000 0.00000000 0.00000000 15.00000000" energy_frozen_part=0.00000000 Properties=species:S:1:pos:R:3:velocities:R:3:Z:I:1
H         8.20370198       6.26558385       4.62562346         0.00000000       0.00000000       0.00000000          1
H         9.06310422       5.74394441       7.23207874         0.00000000       0.00000000       0.00000000          1
H         7.28876155       7.84497899       6.74049825         0.00000000       0.00000000       0.00000000          1
H        10.84323385       6.80957726       5.36129803         0.00000000       0.00000000       0.00000000          1
H         9.06889933       8.91060818       4.86971247         0.00000000       0.00000000       0.00000000          1
H         9.92829132       8.38896457       7.47617546         0.00000000       0.00000000       0.00000000          1
6
pbc=[F, F, F] list_num_par=6 frozen=false iter=20000 energy=-1.26974174 Lattice="15.00000000 0.00000000 0.00000000 0.00000000 15.00000000 0.00000000 0.00000000 0.00000000 15.00000000" energy_frozen_part=0.00000000 Properties=species:S:1:pos:R:3:velocities:R:3:Z:I:1
H         8.20969158       6.27001521       4.62502787         0.00000000       0.00000000       0.00000000          1
H         9.06485695       5.74252715       7.23170487         0.00000000       0.00000000       0.00000000          1
H         7.29160441       7.84489033       6.74189760         0.00000000       0.00000000       0.00000000          1
H        10.84812709       6.81199777       5.36610050         0.00000000       0.00000000       0.00000000          1
H         9.07487646       8.91436934       4.87631036         0.00000000       0.00000000       0.00000000          1
H         9.93003945       8.38687528       7.48297600         0.00000000       0.00000000       0.00000000          1
6
pbc=[F, F, F] list_num_par=6 frozen=false iter=20000 energy=-1.26974174 Lattice="15.00000000 0.00000000 0.00000000 0.00000000 15.00000000 0.00000000 0.00000000 0.00000000 15.00000000" energy_frozen_part=0.00000000 Properties=species:S:1:pos:R:3:velocities:R:3:Z:I:1
H         8.20371105       6.26563061       4.62575168         0.00000000       0.00000000       0.00000000          1
H         9.06319908       5.74397608       7.23217723         0.00000000       0.00000000       0.00000000          1
H         7.28878869       7.84497226       6.74067113         0.00000000       0.00000000       0.00000000          1
H        10.84325444       6.80967548       5.36135203         0.00000000       0.00000000       0.00000000          1
H         9.06884402       8.91067005       4.86984773         0.00000000       0.00000000       0.00000000          1
H         9.92832210       8.38901805       7.47627096         0.00000000       0.00000000       0.00000000          1
6
pbc=[F, F, F] list_num_par=6 frozen=false iter=20000 energy=-1.26974174 Lattice="15.00000000 0.00000000 0.00000000 0.00000000 15.00000000 0.00000000 0.00000000 0.00000000 15.00000000" energy_frozen_part=0.00000000 Properties=species:S:1:pos:R:3:velocities:R:3:Z:I:1
H         8.20366107       6.26564345       4.62571195         0.00000000       0.00000000       0.00000000          1
H         9.06312768       5.74389527       7.23212367         0.00000000       0.00000000       0.00000000          1
H         7.28877029       7.84495155       6.74067728         0.00000000       0.00000000       0.00000000          1
H        10.84321737       6.80959871       5.36133515         0.00000000       0.00000000       0.00000000          1
H         9.06885555       8.91065734       4.86989013         0.00000000       0.00000000       0.00000000          1
H         9.92832308       8.38890605       7.47629816         0.00000000       0.00000000       0.00000000          1
6
pbc=[F, F, F] list_num_par=6 frozen=false iter=20000 energy=-1.26974174 Lattice="15.00000000 0.00000000 0.00000000 0.00000000 15.00000000 0.00000000 0.00000000 0.00000000 15.00000000" energy_frozen_part=0.00000000 Properties=species:S:1:pos:R:3:velocities:R:3:Z:I:1
H         8.20367367       6.26556795       4.62565082         0.00000000       0.00000000       0.00000000          1
H         9.06307204       5.74398206       7.23210957         0.00000000       0.00000000       0.00000000          1
H         7.28866533       7.84495630       6.74049704         0.00000000       0.00000000       0.00000000          1
H        10.84318536       6.80964432       5.36132328         0.00000000       0.00000000       0.00000000          1
H         9.06877642       8.91062320       4.86971083         0.00000000       0.00000000       0.00000000          1
H         9.92818272       8.38903783       7.47617178         0.00000000       0.00000000       0.00000000          1
6
pbc=[F, F, F] list_num_par=6 frozen=false iter=20000 energy=-1.26974174 Lattice="15.00000000 0.00000000 0.00000000 0.00000000 15.00000000 0.00000000 0.00000000 0.00000000 15.00000000" energy_frozen_part=0.00000000 Properties=species:S:1:pos:R:3:velocities:R:3:Z:I:1
H         8.20364300       6.26569238       4.62580519         0.00000000       0.00000000       0.00000000          1
H         9.06324382       5.74398206       7.23218280         0.00000000       0.00000000       0.00000000          1
H         7.28884663       7.84501355       6.74078769         0.00000000       0.00000000       0.00000000          1
H        10.84322434       6.80967575       5.36128549         0.00000000       0.00000000       0.00000000          1
H         9.06883338       8.91071784       4.86990007         0.00000000       0.00000000       0.00000000          1
H         9.92843292       8.38900827       7.47627551         0.00000000       0.00000000       0.00000000          1
6
pbc=[F, F, F] list_num_par=6 frozen=false iter=20000 energy=-1.26974174 Lattice="15.00000000 0.00000000 0.00000000 0.00000000 15.00000000 0.00000000 0.00000000 0.00000000 15.00000000" energy_frozen_part=0.00000000 Properties=species:S:1:pos:R:3:velocities:R:3:Z:I:1
H         8.20947554       6.26978112       4.62533204         0.00000000       0.00000000       0.00000000          1
H         9.06490608       5.74261780       7.23197696         0.00000000       0.00000000       0.00000000          1
H         7.29162832       7.84495407       6.74209898         0.00000000       0.00000000       0.00000000          1
H        10.84799439       6.81182977       5.36606150         0.00000000       0.00000000       0.00000000          1
H         9.07471515       8.91415826       4.87617518         0.00000000       0.00000000       0.00000000          1
H         9.93014765       8.38699805       7.48282277         0.00000000       0.00000000       0.00000000          1
6
pbc=[F, F, F] list_num_par=6 frozen=false iter=20000 energy=-1.26974174 Lattice="15.00000000 0.00000000 0.00000000 0.00000000 15.00000000 0.00000000 0.00000000 0.00000000 15.00000000" energy_frozen_part=0.00000000 Properties=species:S:1:pos:R:3:velocities:R:3:Z:I:1
H         8.20367935       6.26562084       4.62558117         0.00000000       0.00000000       0.00000000          1
H         9.06307263       5.74394298       7.23203815         0.00000000       0.00000000       0.00000000          1
H         7.28873406       7.84497912       6.74047595         0.00000000       0.00000000       0.00000000          1
H        10.84320776       6.80960123       5.36127017         0.00000000       0.00000000       0.00000000          1
H         9.06887057       8.91063897       4.86971122         0.00000000       0.00000000       0.00000000          1
H         9.92826964       8.38896033       7.47616587         0.00000000       0.00000000       0.00000000          1
6
pbc=[F, F, F] list_num_par=6 frozen=false iter=20000 energy=-1.26974174 Lattice="15.00000000 0.00000000 0.00000000 0.00000000 15.00000000 0.00000000 0.00000000 0.00000000 15.00000000" energy_frozen_part=0.00000000 Properties=species:S:1:pos:R:3:velocities:R:3:Z:I:1
H         8.20363076       6.26566500       4.62580028         0.00000000       0.00000000       0.00000000          1
H         9.06326275       5.74398617       7.23216649         0.00000000       0.00000000       0.00000000          1