6
pbc=[F, F, F] list_num_par=6 energy=-1.26974174 iter=20000 frozen=false Lattice="15.00000000 0.00000000 0.00000000 0.00000000 15.00000000 0.00000000 0.00000000 0.00000000 15.00000000" energy_frozen_part=0.00000000 Properties=species:S:1:pos:R:3:velocities:R:3:Z:I:1
H         4.73953864       6.96358728       9.46898894         0.00000000       0.00000000       0.00000000          1
H         4.07948924       9.74915660      12.19175668         0.00000000       0.00000000       0.00000000          1
H         6.14173629       9.19746578      10.38980176         0.00000000       0.00000000       0.00000000          1
H         2.67729181       7.51527255      11.27095461         0.00000000       0.00000000       0.00000000          1
H         5.29981512       7.23617886      12.19223868         0.00000000       0.00000000       0.00000000          1
H         3.51921208       9.47657164       9.46851173         0.00000000       0.00000000       0.00000000          1
6
pbc=[F, F, F] list_num_par=6 energy=-1.26974174 iter=20000 frozen=false Lattice="15.00000000 0.00000000 0.00000000 0.00000000 15.00000000 0.00000000 0.00000000 0.00000000 15.00000000" energy_frozen_part=0.00000000 Properties=species:S:1:pos:R:3:velocities:R:3:Z:I:1
H         4.73949175       6.96373037       9.46909276         0.00000000       0.00000000       0.00000000          1
H         4.07958982       9.74946115      12.19173481         0.00000000       0.00000000       0.00000000          1
H         6.14179225       9.19760497      10.38977056         0.00000000       0.00000000       0.00000000          1
H         2.67729298       7.51558405      11.27105269         0.00000000       0.00000000       0.00000000          1
H         5.29981965       7.23642939      12.19230981         0.00000000       0.00000000       0.00000000          1
H         3.51927438       9.47676317       9.46850837         0.00000000       0.00000000       0.00000000          1
6
pbc=[F, F, F] list_num_par=6 energy=-1.26974174 iter=20000 frozen=false Lattice="15.00000000 0.00000000 0.00000000 0.00000000 15.00000000 0.00000000 0.00000000 0.00000000 15.00000000" energy_frozen_part=0.00000000 Properties=species:S:1:pos:R:3:velocities:R:3:Z:I:1
H         5.45539782      11.78374708       9.82939453         0.00000000       0.00000000       0.00000000          1
H         8.87294442       9.91019033       9.18226402         0.00000000       0.00000000       0.00000000          1
H         7.74738112      11.27597053      11.34375738         0.00000000       0.00000000       0.00000000          1
H         6.36284671       9.16157728      10.15349888         0.00000000       0.00000000       0.00000000          1
H         6.58096674      10.41797297       7.66790260         0.00000000       0.00000000       0.00000000          1
H         7.96549896      12.53236453       8.85816561         0.00000000       0.00000000       0.00000000          1
6
pbc=[F, F, F] list_num_par=6 energy=-1.26974174 iter=20000 frozen=false Lattice="15.00000000 0.00000000 0.00000000 0.00000000 15.00000000 0.00000000 0.00000000 0.00000000 15.00000000" energy_frozen_part=0.00000000 Properties=species:S:1:pos:R:3:velocities:R:3:Z:I:1
H         4.73954968       6.96358509       9.46898303         0.00000000       0.00000000       0.00000000          1
H         4.07947499       9.74915520      12.19175174         0.00000000       0.00000000       0.00000000          1
H         6.14173376       9.19747394      10.38980230         0.00000000       0.00000000       0.00000000          1
H         2.67729877       7.51526292      11.27094002         0.00000000       0.00000000       0.00000000          1
H         5.29981488       7.23616997      12.19223534         0.00000000       0.00000000       0.00000000          1
H         3.51921034       9.47656361       9.46849892         0.00000000       0.00000000       0.00000000          1
6
pbc=[F, F, F] list_num_par=6 energy=-1.26974174 iter=20000 frozen=false Lattice="15.00000000 0.00000000 0.00000000 0.00000000 15.00000000 0.00000000 0.00000000 0.00000000 15.00000000" energy_frozen_part=0.00000000 Properties=species:S:1:pos:R:3:velocities:R:3:Z:I:1
H         5.45545566      11.78391523       9.82914579         0.00000000       0.00000000       0.00000000          1
H         8.87295099       9.91017478       9.18229888         0.00000000       0.00000000       0.00000000          1
H         7.74737815      11.27619828      11.34362185         0.00000000       0.00000000       0.00000000          1
H         6.36280236       9.16174702      10.15352607         0.00000000       0.00000000       0.00000000          1
H         6.58103500      10.41789606       7.66782043         0.00000000       0.00000000       0.00000000          1
H         7.96560226      12.53235129       8.85791717         0.00000000       0.00000000       0.00000000          1
6
pbc=[F, F, F] list_num_par=6 energy=-1.26974174 iter=20000 frozen=false Lattice="15.00000000 0.00000000 0.00000000 0.00000000 15.00000000 0.00000000 0.00000000 0.00000000 15.00000000" energy_frozen_part=0.00000000 Properties=species:S:1:pos:R:3:velocities:R:3:Z:I:1
H         4.73955502       6.96357409       9.46906357         0.00000000       0.00000000       0.00000000          1
H         4.07963753       9.74936630      12.19163734         0.00000000       0.00000000       0.00000000          1
H         6.14184923       9.19746809      10.38970419         0.00000000       0.00000000       0.00000000          1
H         2.67733651       7.51548390      11.27099242         0.00000000       0.00000000       0.00000000          1
H         5.29985497       7.23632875      12.19228659         0.00000000       0.00000000       0.00000000          1
H         3.51934284       9.47661291       9.46841103         0.00000000       0.00000000       0.00000000          1
6
pbc=[F, F, F] list_num_par=6 energy=-1.26974174 iter=20000 frozen=false Lattice="15.00000000 0.00000000 0.00000000 0.00000000 15.00000000 0.00000000 0.00000000 0.00000000 15.00000000" energy_frozen_part=0.00000000 Properties=species:S:1:pos:R:3:velocities:R:3:Z:I:1
H         4.73955080       6.96358343       9.46900462         0.00000000       0.00000000       0.00000000          1
H         4.07947376       9.74917335      12.19176150         0.00000000       0.00000000       0.00000000          1
H         6.14173087       9.19747778      10.38982145         0.00000000       0.00000000       0.00000000          1
H         2.67729278       7.51527667      11.27095210         0.00000000       0.00000000       0.00000000          1
H         5.29980288       7.23618288      12.19225226         0.00000000       0.00000000       0.00000000          1
H         3.51921192       9.47656524       9.46851487         0.00000000       0.00000000       0.00000000          1
6
pbc=[F, F, F] list_num_par=6 energy=-1.26974174 iter=20000 frozen=false Lattice="15.00000000 0.00000000 0.00000000 0.00000000 15.00000000 0.00000000 0.00000000 0.00000000 15.00000000" energy_frozen_part=0.00000000 Properties=species:S:1:pos:R:3:velocities:R:3:Z:I:1
H         4.73953808       6.96354730       9.46897703         0.00000000       0.00000000       0.00000000          1
H         4.07955273       9.74922400      12.19166312         0.00000000       0.00000000       0.00000000          1
H         6.14179918       9.19740860      10.38974878         0.00000000       0.00000000       0.00000000          1
H         2.67728965       7.51535913      11.27089771         0.00000000       0.00000000       0.00000000          1
H         5.29978757       7.23619667      12.19222003         0.00000000       0.00000000       0.00000000          1
H         3.51930329       9.47657999       9.46841750         0.00000000       0.00000000       0.00000000          1
6
pbc=[F, F, F] list_num_par=6 energy=-1.26974174 iter=20000 frozen=false Lattice="15.00000000 0.00000000 0.00000000 0.00000000 15.00000000 0.00000000 0.00000000 0.00000000 15.00000000" energy_frozen_part=0.00000000 Properties=species:S:1:pos:R:3:velocities:R:3:Z:I:1
H         5.45506802      11.78425521       9.82682561         0.00000000       0.00000000       0.00000000          1
H         8.87300345       9.91024921       9.18310531         0.00000000       0.00000000       0.00000000          1
H         7.74561773      11.27649017      11.34335231         0.00000000       0.00000000       0.00000000          1
H         6.36195368       9.16204014      10.15218131         0.00000000       0.00000000       0.00000000          1
H         6.58245369      10.41799942       7.66657947         0.00000000       0.00000000       0.00000000          1
H         7.96611569      12.53245506       8.85774813         0.00000000       0.00000000       0.00000000          1
6
pbc=[F, F, F] list_num_par=6 energy=-1.26974174 iter=20000 frozen=false Lattice="15.00000000 0.00000000 0.00000000 0.00000000 15.00000000 0.00000000 0.00000000 0.00000000 15.00000000" energy_frozen_part=0.00000000 Properties=species:S:1:pos:R:3:velocities:R:3:Z:I:1
H         4.73955121       6.96357670       9.46905247         0.00000000       0.00000000       0.00000000          1
H         4.07962979       9.74936544      12.19163991         0.00000000       0.00000000       0.00000000          1
H         6.14184854       9.19746228      10.38970467         0.00000000       0.00000000       0.00000000          1
H         2.67734015       7.51547089      11.27099302         0.00000000       0.00000000       0.00000000          1
H         5.29985934       7.23633561      12.19228060         0.00000000       0.00000000       0.00000000          1
H         3.51933326       9.47661514       9.46841950         0.00000000       0.00000000       0.00000000          1
6
pbc=[F, F, F] list_num_par=6 energy=-1.26974174 iter=20000 frozen=false Lattice="15.00000000 0.00000000 0.00000000 0.00000000 15.00000000 0.00000000 0.00000000 0.00000000 15.00000000" energy_frozen_part=0.00000000 Properties=species:S:1:pos:R:3:velocities:R:3:Z:I:1
H         4.73955111       6.96355325       9.46899784         0.00000000       0.00000000       0.00000000          1
H         4.07957927       9.74927614      12.19162876         0.00000000       0.00000000       0.00000000          1
H         6.14181415       9.19742744      10.38970200         0.00000000       0.00000000       0.00000000          1
H         2.67731722       7.51539475      11.27092484         0.00000000       0.00000000       0.00000000          1
H         5.29982587       7.23625641      12.19223922         0.00000000       0.00000000       0.00000000          1
H         3.51930529       9.47657888       9.46839473         0.00000000       0.00000000       0.00000000          1
6
pbc=[F, F, F] list_num_par=6 energy=-1.26974174 iter=20000 frozen=false Lattice="15.00000000 0.00000000 0.00000000 0.00000000 15.00000000 0.00000000 0.00000000 0.00000000 15.00000000" energy_frozen_part=0.00000000 Properties=species:S:1:pos:R:3:velocities:R:3:Z:I:1
H         4.73952898       6.96354665       9.46901001         0.00000000       0.00000000       0.00000000          1
H         4.07957283       9.74926622      12.19165809         0.00000000       0.00000000       0.00000000          1
H         6.14181143       9.19740492      10.38974546         0.00000000       0.00000000       0.00000000          1
H         2.67728024       7.51541343      11.27091282         0.00000000       0.00000000       0.00000000          1
H         5.29978113       7.23622453      12.19225149         0.00000000       0.00000000       0.00000000          1
H         3.51932297       9.47659064       9.46840620         0.00000000       0.00000000       0.00000000          1
6
pbc=[F, F, F] list_num_par=6 energy=-1.26974174 iter=20000 frozen=false Lattice="15.00000000 0.00000000 0.00000000 0.00000000 15.00000000 0.00000000 0.00000000 0.00000000 15.00000000" energy_frozen_part=0.00000000 Properties=species:S:1:pos:R:3:velocities:R:3:Z:I:1
H         4.73953952       6.96355440       9.46900789         0.00000000       0.00000000       0.00000000          1
H         4.07957713       9.74926012      12.19165289         0.00000000       0.00000000       0.00000000          1
H         6.14181886       9.19740993      10.38974292         0.00000000       0.00000000       0.00000000          1
H         2.67729795       7.51540574      11.27092205         0.00000000       0.00000000       0.00000000          1
H         5.29979586       7.23621870      12.19224691         0.00000000       0.00000000       0.00000000          1
H         3.51931923       9.47659092       9.46841129         0.00000000       0.00000000       0.00000000          1
6
pbc=[F, F, F] list_num_par=6 energy=-1.26974174 iter=20000 frozen=false Lattice="15.00000000 0.00000000 0.00000000 0.00000000 15.00000000 0.00000000 0.00000000 0.00000000 15.00000000" energy_frozen_part=0.00000000 Properties=species:S:1:pos:R:3:velocities:R:3:Z:I:1
H         5.45544648      11.78392035       9.82918835         0.00000000       0.00000000       0.00000000          1
H         8.87290545       9.91014498       9.18227022         0.00000000       0.00000000       0.00000000          1
H         7.74734100      11.27609853      11.34365791         0.00000000       0.00000000       0.00000000          1
H         6.36273571       9.16171670      10.15346622         0.00000000       0.00000000       0.00000000          1
H         6.58099992      10.41795698       7.66781014         0.00000000       0.00000000       0.00000000          1
H         7.96560737      12.53234316       8.85799417         0.00000000       0.00000000       0.00000000          1
6
pbc=[F, F, F] list_num_par=6 energy=-1.26974174 iter=20000 frozen=false Lattice="15.00000000 0.00000000 0.00000000 0.00000000 15.00000000 0.00000000 0.00000000 0.00000000 15.00000000" energy_frozen_part=0.00000000 Properties=species:S:1:pos:R:3:velocities:R:3:Z:I:1
H         5.45549674      11.78396716       9.82917770         0.00000000       0.00000000       0.00000000          1
H         8.87294640       9.91015085       9.18231893         0.00000000       0.00000000       0.00000000          1
H         7.74741526      11.27621265      11.34364431         0.00000000       0.00000000       0.00000000          1
H         6.36278825       9.16177456      10.15357180         0.00000000       0.00000000       0.00000000          1
H         6.58104156      10.41790473       7.66785415         0.00000000       0.00000000       0.00000000          1
H         7.96565305      12.53233884       8.85792725         0.00000000       0.00000000       0.00000000          1
6
pbc=[F, F, F] list_num_par=6 energy=-1.26974174 iter=20000 frozen=false Lattice="15.00000000 0.00000000 0.00000000 0.00000000 15.00000000 0.00000000 0.00000000 0.00000000 15.00000000" energy_frozen_part=0.00000000 Properties=species:S:1:pos:R:3:velocities:R:3:Z:I:1
H         4.73952117       6.96353055       9.46901272         0.00000000       0.00000000       0.00000000          1
H         4.07956167       9.74926744      12.19165193         0.00000000       0.00000000       0.00000000          1
H         6.14180964       9.19739629      10.38974627         0.00000000       0.00000000       0.00000000          1
H         2.67727207       7.51540911      11.27091511         0.00000000       0.00000000       0.00000000          1
H         5.29976830       7.23622148      12.19225181         0.00000000       0.00000000       0.00000000          1
H         3.51931676       9.47658349       9.46840562         0.00000000       0.00000000       0.00000000          1
6
pbc=[F, F, F] list_num_par=6 energy=-1.26974174 iter=20000 frozen=false Lattice="15.00000000 0.00000000 0.00000000 0.00000000 15.00000000 0.00000000 0.00000000 0.00000000 15.00000000" energy_frozen_part=0.00000000 Properties=species:S:1:pos:R:3:velocities:R:3:Z:I:1
H         4.73949588       6.96372309       9.46909680         0.00000000       0.00000000       0.00000000          1
H         4.07961179       9.74946609      12.19173629         0.00000000       0.00000000       0.00000000          1
H         6.14180965       9.19758327      10.38977325         0.00000000       0.00000000       0.00000000          1
H         2.67729299       7.51560129      11.27105017         0.00000000       0.00000000       0.00000000          1
H         5.29981574       7.23642356      12.19231569         0.00000000       0.00000000       0.00000000          1
H         3.51928832       9.47676891       9.46850702         0.00000000       0.00000000       0.00000000          1
6
pbc=[F, F, F] list_num_par=6 energy=-1.26974174 iter=20000 frozen=false Lattice="15.00000000 0.00000000 0.00000000 0.00000000 15.00000000 0.00000000 0.00000000 0.00000000 15.00000000" energy_frozen_part=0.00000000 Properties=species:S:1:pos:R:3:velocities:R:3:Z:I:1
H         4.73953789       6.96363098       9.46897754         0.00000000       0.00000000       0.00000000          1
H         4.07966397       9.74930966      12.19168174         0.00000000       0.00000000       0.00000000          1
H         6.14186521       9.19745894      10.38972107         0.00000000       0.00000000       0.00000000          1
H         2.67733220       7.51547661      11.27093648         0.00000000       0.00000000       0.00000000          1
H         5.29984887       7.23625964      12.19220581         0.00000000       0.00000000       0.00000000          1
H         3.51934919       9.47668552       9.46845054         0.00000000       0.00000000       0.00000000          1
6
pbc=[F, F, F] list_num_par=6 energy=-1.26974174 iter=20000 frozen=false Lattice="15.00000000 0.00000000 0.00000000 0.00000000 15.00000000 0.00000000 0.00000000 0.00000000 15.00000000" energy_frozen_part=0.00000000 Properties=species:S:1:pos:R:3:velocities:R:3:Z:I:1
H         4.73954280       6.96354703       9.46900131         0.00000000       0.00000000       0.00000000          1
H         4.07958125       9.74927581      12.19162588         0.00000000       0.00000000       0.00000000          1
H         6.14181760       9.19741901      10.38970960         0.00000000       0.00000000       0.00000000          1
H         2.67730164       7.51539918      11.27092492         0.00000000       0.00000000       0.00000000          1
H         5.29981592       7.23624381      12.19223524         0.00000000       0.00000000       0.00000000          1
H         3.51930614       9.47657151       9.46839677         0.00000000       0.00000000       0.00000000          1
6
pbc=[F, F, F] list_num_par=6 energy=-1.26974174 iter=20000 frozen=false Lattice="15.00000000 0.00000000 0.00000000 0.00000000 15.00000000 0.00000000 0.00000000 0.00000000 15.00000000" energy_frozen_part=0.00000000 Properties=species:S:1:pos:R:3:velocities:R:3:Z:I:1
H         4.73959194       6.96357102       9.46902282         0.00000000       0.00000000       0.00000000          1
H         4.07950939       9.74922295      12.19169307         0.00000000       0.00000000       0.00000000          1
H         6.14177910       9.19747667      10.38977861         0.00000000       0.00000000       0.00000000          1
H         2.67731418       7.51531451      11.27092936         0.00000000       0.00000000       0.00000000          1
H         5.29982396       7.23624332      12.19226800         0.00000000       0.00000000       0.00000000          1
H         3.51926578       9.47655197       9.46844766         0.00000000       0.00000000       0.00000000          1
6
pbc=[F, F, F] list_num_par=6 energy=-1.26974174 iter=20000 frozen=false Lattice="15.00000000 0.00000000 0.00000000 0.00000000 15.00000000 0.00000000 0.00000000 0.00000000 15.00000000" energy_frozen_part=0.00000000 Properties=species:S:1:pos:R:3:velocities:R:3:Z:I:1
H         4.73958101       6.96353814       9.46898437         0.00000000       0.00000000       0.00000000          1
H         4.07958166       9.74924844      12.19162239         0.00000000       0.00000000       0.00000000          1
H         6.14185443       9.19740113      10.38974004         0.00000000       0.00000000       0.00000000          1
H         2.67731267       7.51538488      11.27086427         0.00000000       0.00000000       0.00000000          1
H         5.29980557       7.23621880      12.19222946         0.00000000       0.00000000       0.00000000          1
H         3.51936705       9.47657803       9.46837672         0.00000000       0.00000000       0.00000000          1
6
pbc=[F, F, F] list_num_par=6 energy=-1.26974174 iter=20000 frozen=false Lattice="15.00000000 0.00000000 0.00000000 0.00000000 15.00000000 0.00000000 0.00000000 0.00000000 15.00000000" energy_frozen_part=0.00000000 Properties=species:S:1:pos:R:3:velocities:R:3:Z:I:1
H         4.73961108       6.96368173       9.46891376         0.00000000       0.00000000       0.00000000          1
H         4.07965605       9.74930862      12.19165172         0.00000000       0.00000000       0.00000000          1
H         6.14192318       9.19748114      10.38976064         0.00000000       0.00000000       0.00000000          1
H         2.67734503       7.51550689      11.27082125         0.00000000       0.00000000       0.00000000          1
H         5.29982238       7.23624715      12.19217416         0.00000000       0.00000000       0.00000000          1
H         3.51944632       9.47674311       9.46839626         0.00000000       0.00000000       0.00000000          1
6
pbc=[F, F, F] list_num_par=6 energy=-1.26974174 iter=20000 frozen=false Lattice="15.00000000 0.00000000 0.00000000 0.00000000 15.00000000 0.00000000 0.00000000 0.00000000 15.00000000" energy_frozen_part=0.00000000 Properties=species:S:1:pos:R:3:velocities:R:3:Z:I:1
H         5.45551387      11.78401486       9.82924889         0.00000000       0.00000000       0.00000000          1
H         8.87291648       9.91014579       9.18228864         0.00000000       0.00000000       0.00000000          1
H         7.74742775      11.27615635      11.34366923         0.00000000       0.00000000       0.00000000          1
H         6.36275361       9.16178760      10.15353554         0.00000000       0.00000000       0.00000000          1
H         6.58100452      10.41799845       7.66786410         0.00000000       0.00000000       0.00000000          1
H         7.96567498      12.53236426       8.85799205         0.00000000       0.00000000       0.00000000          1
6
pbc=[F, F, F] list_num_par=6 energy=-1.26974174 iter=20000 frozen=false Lattice="15.00000000 0.00000000 0.00000000 0.00000000 15.00000000 0.00000000 0.00000000 0.00000000 15.00000000" energy_frozen_part=0.00000000 Properties=species:S:1:pos:R:3:velocities:R:3:Z:I:1
H         4.73954436       6.96357918       9.46907169         0.00000000       0.00000000       0.00000000          1
H         4.07964610       9.74936583      12.19165639         0.00000000       0.00000000       0.00000000          1
H         6.14184807       9.19746052      10.38971058         0.00000000       0.00000000       0.00000000          1
H         2.67733112       7.51548867      11.27101035         0.00000000       0.00000000       0.00000000          1
H         5.29984884       7.23632785      12.19229769         0.00000000       0.00000000       0.00000000          1
H         3.51933082       9.47661548       9.46842898         0.00000000       0.00000000       0.00000000          1
6
pbc=[F, F, F] list_num_par=6 energy=-1.26974174 iter=20000 frozen=false Lattice="15.00000000 0.00000000 0.00000000 0.00000000 15.00000000 0.00000000 0.00000000 0.00000000 15.00000000" energy_frozen_part=0.00000000 Properties=species:S:1:pos:R:3:velocities:R:3:Z:I:1
H         4.73954269       6.96353730       9.46897992         0.00000000       0.00000000       0.00000000          1
H         4.07957588       9.74922656      12.19165822         0.00000000       0.00000000       0.00000000          1
H         6.14182050       9.19739170      10.38974172         0.00000000       0.00000000       0.00000000          1
H         2.67729532       7.51536717      11.27089109         0.00000000       0.00000000       0.00000000          1
H         5.29978892       7.23618723      12.19223062         0.00000000       0.00000000       0.00000000          1
H         3.51932651       9.47657679       9.46841675         0.00000000       0.00000000       0.00000000          1
6
pbc=[F, F, F] list_num_par=6 energy=-1.26974174 iter=20000 frozen=false Lattice="15.00000000 0.00000000 0.00000000 0.00000000 15.00000000 0.00000000 0.00000000 0.00000000 15.00000000" energy_frozen_part=0.00000000 Properties=species:S:1:pos:R:3:velocities:R:3:Z:I:1
H         4.73954829       6.96357868       9.46897856         0.00000000       0.00000000       0.00000000          1
H         4.07949130       9.74914727      12.19175481         0.00000000       0.00000000       0.00000000          1
H         6.14174400       9.19745973      10.38980398         0.00000000       0.00000000       0.00000000          1
H         2.67730145       7.51526377      11.27093808         0.00000000       0.00000000       0.00000000          1
H         5.29981198       7.23616729      12.19223052         0.00000000       0.00000000       0.00000000          1
H         3.51922707       9.47656533       9.46850687         0.00000000       0.00000000       0.00000000          1
6
pbc=[F, F, F] list_num_par=6 energy=-1.26974174 iter=20000 frozen=false Lattice="15.00000000 0.00000000 0.00000000 0.00000000 15.00000000 0.00000000 0.00000000 0.00000000 15.00000000" energy_frozen_part=0.00000000 Properties=species:S:1:pos:R:3:velocities:R:3:Z:I:1
H         4.73954833       6.96358040       9.46898021         0.00000000       0.00000000       0.00000000          1
H         4.07950829       9.74916044      12.19173490         0.00000000       0.00000000       0.00000000          1
H         6.14175394       9.19745918      10.38978648         0.00000000       0.00000000       0.00000000          1
H         2.67730263       7.51527514      11.27093235         0.00000000       0.00000000       0.00000000          1
H         5.29982669       7.23617191      12.19222468         0.00000000       0.00000000       0.00000000          1
H         3.51923129       9.47656178       9.46849283         0.00000000       0.00000000       0.00000000          1
6
pbc=[F, F, F] list_num_par=6 energy=-1.26974174 iter=20000 frozen=false Lattice="15.00000000 0.00000000 0.00000000 0.00000000 15.00000000 0.00000000 0.00000000 0.00000000 15.00000000" energy_frozen_part=0.00000000 Properties=species:S:1:pos:R:3:velocities:R:3:Z:I:1
H         4.73954422       6.96356736       9.46906893         0.00000000       0.00000000       0.00000000          1
H         4.07963091       9.74937293      12.19163928         0.00000000       0.00000000       0.00000000          1
H         6.14184988       9.19745251      10.38970635         0.00000000       0.00000000       0.00000000          1
H         2.67733373       7.51547618      11.27100643         0.00000000       0.00000000       0.00000000          1
H         5.29984814       7.23633305      12.19229559         0.00000000       0.00000000       0.00000000          1
H         3.51933511       9.47660724       9.46841633         0.00000000       0.00000000       0.00000000          1
6
pbc=[F, F, F] list_num_par=6 energy=-1.26974174 iter=20000 frozen=false Lattice="15.00000000 0.00000000 0.00000000 0.00000000 15.00000000 0.00000000 0.00000000 0.00000000 15.00000000" energy_frozen_part=0.00000000 Properties=species:S:1:pos:R:3:velocities:R:3:Z:I:1
H         4.73947312       6.96370804       9.46909125         0.00000000       0.00000000       0.00000000          1
H         4.07959118       9.74944730      12.19173152         0.00000000       0.00000000       0.00000000          1
H         6.14178250       9.19757305      10.38977330         0.00000000       0.00000000       0.00000000          1
H         2.67727010       7.51559283      11.27105036         0.00000000       0.00000000       0.00000000          1
H         5.29978676       7.23640742      12.19231675         0.00000000       0.00000000       0.00000000          1
H         3.51926835       9.47675394       9.46850455         0.00000000       0.00000000       0.00000000          1
6
pbc=[F, F, F] list_num_par=6 energy=-1.26974174 iter=20000 frozen=false Lattice="15.00000000 0.00000000 0.00000000 0.00000000 15.00000000 0.00000000 0.00000000 0.00000000 15.00000000" energy_frozen_part=0.00000000 Properties=species:S:1:pos:R:3:velocities:R:3:Z:I:1
H         5.45548802      11.78396637       9.82920688         0.00000000       0.00000000       0.00000000          1
H         8.87292255       9.91013247       9.18231903         0.00000000       0.00000000       0.00000000          1
H         7.74739469      11.27616862      11.34367155         0.00000000       0.00000000       0.00000000          1
H         6.36276422       9.16176607      10.15355717         0.00000000       0.00000000       0.00000000          1
H         6.58101407      10.41794254       7.66785711         0.00000000       0.00000000       0.00000000          1
H         7.96565795      12.53233538       8.85797300         0.00000000       0.00000000       0.00000000          1
6
pbc=[F, F, F] list_num_par=6 energy=-1.26974174 iter=20000 frozen=false Lattice="15.00000000 0.00000000 0.00000000 0.00000000 15.00000000 0.00000000 0.00000000 0.00000000 15.00000000" energy_frozen_part=0.00000000 Properties=species:S:1:pos:R:3:velocities:R:3:Z:I:1
H         4.73955252       6.96358411       9.46898183         0.00000000       0.00000000       0.00000000          1
H         4.07947558       9.74915166      12.19174419         0.00000000       0.00000000       0.00000000          1