6
pbc=[F, F, F] list_num_par=6 energy=20.18362833 iter=9 frozen=false Lattice="15.00000000 0.00000000 0.00000000 0.00000000 15.00000000 0.00000000 0.00000000 0.00000000 15.00000000" energy_frozen_part=0.00000000 Properties=species:S:1:pos:R:3:velocities:R:3:Z:I:1
H         3.65012677      13.30470902       1.30483817         0.00000000       0.00000000       0.00000000          1
H         9.59132203       5.72447955      12.66451708         0.00000000       0.00000000       0.00000000          1
H         2.62789049       6.37920462       9.42107658         0.00000000       0.00000000       0.00000000          1
H         9.06407990       4.32443767       0.37724091         0.00000000       0.00000000       0.00000000          1
H         3.16812904       8.04203258       9.76211629         0.00000000       0.00000000       0.00000000          1
H         1.65312297       4.60259361      11.20047905         0.00000000       0.00000000       0.00000000          1
6
pbc=[F, F, F] list_num_par=6 energy=0.35281490 iter=19 frozen=false Lattice="15.00000000 0.00000000 0.00000000 0.00000000 15.00000000 0.00000000 0.00000000 0.00000000 15.00000000" energy_frozen_part=0.00000000 Properties=species:S:1:pos:R:3:velocities:R:3:Z:I:1
H         5.37862549       4.51136197       7.17234941         0.00000000       0.00000000       0.00000000          1
H         6.93534342      12.98231430      14.28128398         0.00000000       0.00000000       0.00000000          1
H        11.71008505       5.38923185      10.40312472         0.00000000       0.00000000       0.00000000          1
H        10.07523010       6.87096215       9.69376929         0.00000000       0.00000000       0.00000000          1
H         6.58440638       0.62229383      10.33920590         0.00000000       0.00000000       0.00000000          1
H         4.92813173      12.58069181       4.42626742         0.00000000       0.00000000       0.00000000          1
6
pbc=[F, F, F] list_num_par=6 energy=-0.00155728 iter=29 frozen=false Lattice="15.00000000 0.00000000 0.00000000 0.00000000 15.00000000 0.00000000 0.00000000 0.00000000 15.00000000" energy_frozen_part=0.00000000 Properties=species:S:1:pos:R:3:velocities:R:3:Z:I:1
H         3.86774625       1.58341749       2.90699834         0.00000000       0.00000000       0.00000000          1
H        10.10922052       3.79274933      10.68345340         0.00000000       0.00000000       0.00000000          1
H        13.40612941      12.47319346       5.87726405         0.00000000       0.00000000       0.00000000          1
H         0.27939874      14.91839960       3.14322462         0.00000000       0.00000000       0.00000000          1
H         2.19058207       4.61844694      12.25331857         0.00000000       0.00000000       0.00000000          1
H         6.46729361      12.86193825       6.37954433         0.00000000       0.00000000       0.00000000          1
6
pbc=[F, F, F] list_num_par=6 energy=-0.00454467 iter=39 frozen=false Lattice="15.00000000 0.00000000 0.00000000 0.00000000 15.00000000 0.00000000 0.00000000 0.00000000 15.00000000" energy_frozen_part=0.00000000 Properties=species:S:1:pos:R:3:velocities:R:3:Z:I:1
H         2.30212094       2.40501971       2.50255546         0.00000000       0.00000000       0.00000000          1
H         5.45077766      14.00092750      13.97682210         0.00000000       0.00000000       0.00000000          1
H         5.35928243       1.61157647       7.04015333         0.00000000       0.00000000       0.00000000          1
H        14.26734808       2.68554625       6.69035290         0.00000000       0.00000000       0.00000000          1
H         9.40893950       3.67680230      12.71413709         0.00000000       0.00000000       0.00000000          1
H        11.66227716      11.50674701       8.63010846         0.00000000       0.00000000       0.00000000          1
6
pbc=[F, F, F] list_num_par=6 energy=-0.00684697 iter=49 frozen=false Lattice="15.00000000 0.00000000 0.00000000 0.00000000 15.00000000 0.00000000 0.00000000 0.00000000 15.00000000" energy_frozen_part=0.00000000 Properties=species:S:1:pos:R:3:velocities:R:3:Z:I:1
H        12.51801956      14.08461050       4.66618456         0.00000000       0.00000000       0.00000000          1
H         4.93211560      11.81831869       8.60455492         0.00000000       0.00000000       0.00000000          1
H         7.94703118       9.21727492      12.16929730         0.00000000       0.00000000       0.00000000          1
H         5.18442382       5.72838792       2.36289078         0.00000000       0.00000000       0.00000000          1
H        13.54169062       6.46975670      14.40415637         0.00000000       0.00000000       0.00000000          1
H        14.98867713       4.99933689       8.42817405         0.00000000       0.00000000       0.00000000          1
6
pbc=[F, F, F] list_num_par=6 energy=-0.01097376 iter=59 frozen=false Lattice="15.00000000 0.00000000 0.00000000 0.00000000 15.00000000 0.00000000 0.00000000 0.00000000 15.00000000" energy_frozen_part=0.00000000 Properties=species:S:1:pos:R:3:velocities:R:3:Z:I:1
H         2.69571767       7.40916819      14.39047336         0.00000000       0.00000000       0.00000000          1
H        11.54465599       4.65325777       2.82082344         0.00000000       0.00000000       0.00000000          1
H         8.78121627      11.76402335      11.25718209         0.00000000       0.00000000       0.00000000          1
H         8.00672599      12.23900746       5.50184802         0.00000000       0.00000000       0.00000000          1
H         2.43822771      11.20604315      11.24266112         0.00000000       0.00000000       0.00000000          1
H         2.77767488       3.06314652       3.47599914         0.00000000       0.00000000       0.00000000          1
6
pbc=[F, F, F] list_num_par=6 energy=-0.01407660 iter=69 frozen=false Lattice="15.00000000 0.00000000 0.00000000 0.00000000 15.00000000 0.00000000 0.00000000 0.00000000 15.00000000" energy_frozen_part=0.00000000 Properties=species:S:1:pos:R:3:velocities:R:3:Z:I:1
H        14.34215246       9.52155510       2.92753222         0.00000000       0.00000000       0.00000000          1
H         5.67776517       2.11106683      10.68712814         0.00000000       0.00000000       0.00000000          1
H        13.95740610       4.09355429      10.74557987         0.00000000       0.00000000       0.00000000          1
H         3.98540104       7.31022609      11.08073780         0.00000000       0.00000000       0.00000000          1
H        11.15945544      11.51492100       5.52576960         0.00000000       0.00000000       0.00000000          1
H         1.55306101      10.55284151       0.26993527         0.00000000       0.00000000       0.00000000          1
6
pbc=[F, F, F] list_num_par=6 energy=-0.02343381 iter=79 frozen=false Lattice="15.00000000 0.00000000 0.00000000 0.00000000 15.00000000 0.00000000 0.00000000 0.00000000 15.00000000" energy_frozen_part=0.00000000 Properties=species:S:1:pos:R:3:velocities:R:3:Z:I:1
H        12.19516631      13.96787137      10.54078814         0.00000000       0.00000000       0.00000000          1
H         8.14189665      12.49985414      12.51546233         0.00000000       0.00000000       0.00000000          1
H        11.89274530       2.74518270       8.14484926         0.00000000       0.00000000       0.00000000          1
H        10.32282591       2.29152994       1.52046191         0.00000000       0.00000000       0.00000000          1
H         4.36154189      10.26347333      10.63082057         0.00000000       0.00000000       0.00000000          1
H        14.67229923       4.84854370       2.41664107         0.00000000       0.00000000       0.00000000          1
6
pbc=[F, F, F] list_num_par=6 energy=-0.02743431 iter=89 frozen=false Lattice="15.00000000 0.00000000 0.00000000 0.00000000 15.00000000 0.00000000 0.00000000 0.00000000 15.00000000" energy_frozen_part=0.00000000 Properties=species:S:1:pos:R:3:velocities:R:3:Z:I:1
H         1.64750597      13.30670589       9.16816858         0.00000000       0.00000000       0.00000000          1
H         2.64310669       9.24140429      13.87874801         0.00000000       0.00000000       0.00000000          1
H         5.19841466       3.05979091      10.99036711         0.00000000       0.00000000       0.00000000          1
H        14.89623983       9.33775021       3.24276924         0.00000000       0.00000000       0.00000000          1
H         9.85170266      13.01118536       7.84471484         0.00000000       0.00000000       0.00000000          1
H         0.06433155       7.05718299      11.77756348         0.00000000       0.00000000       0.00000000          1
6
pbc=[F, F, F] list_num_par=6 energy=-0.02949626 iter=99 frozen=false Lattice="15.00000000 0.00000000 0.00000000 0.00000000 15.00000000 0.00000000 0.00000000 0.00000000 15.00000000" energy_frozen_part=0.00000000 Properties=species:S:1:pos:R:3:velocities:R:3:Z:I:1
H         7.75749866       5.82834192       9.84985511         0.00000000       0.00000000       0.00000000          1
H         9.12417578      13.25788511       3.28716500         0.00000000       0.00000000       0.00000000          1
H         5.13116763       1.21862640       5.01608484         0.00000000       0.00000000       0.00000000          1
H        11.12506433       9.18742579      13.55347741         0.00000000       0.00000000       0.00000000          1
H         1.42770210       5.03622315       2.66477314         0.00000000       0.00000000       0.00000000          1
H         0.60157192       3.87296008       6.46026680         0.00000000       0.00000000       0.00000000          1
6
pbc=[F, F, F] list_num_par=6 energy=-0.03337638 iter=109 frozen=false Lattice="15.00000000 0.00000000 0.00000000 0.00000000 15.00000000 0.00000000 0.00000000 0.00000000 15.00000000" energy_frozen_part=0.00000000 Properties=species:S:1:pos:R:3:velocities:R:3:Z:I:1
H         8.37536203      11.17125494      10.64324667         0.00000000       0.00000000       0.00000000          1
H         5.53007093       8.10816009       7.42636009         0.00000000       0.00000000       0.00000000          1
H         3.57690014       6.80423132       4.29811410         0.00000000       0.00000000       0.00000000          1
H         8.60759042       3.42033143      11.89466205         0.00000000       0.00000000       0.00000000          1
H        12.64727397      12.37804061      14.50607420         0.00000000       0.00000000       0.00000000          1
H        12.49733512       6.02347031       3.80002636         0.00000000       0.00000000       0.00000000          1
6
pbc=[F, F, F] list_num_par=6 energy=-0.03828846 iter=119 frozen=false Lattice="15.00000000 0.00000000 0.00000000 0.00000000 15.00000000 0.00000000 0.00000000 0.00000000 15.00000000" energy_frozen_part=0.00000000 Properties=species:S:1:pos:R:3:velocities:R:3:Z:I:1
H         4.67267743      14.41175339       1.60457509         0.00000000       0.00000000       0.00000000          1
H        12.55859832      11.89019718       9.89247355         0.00000000       0.00000000       0.00000000          1
H        10.36260625      14.30661004       5.30064307         0.00000000       0.00000000       0.00000000          1
H         6.73832201       1.42869104       2.93268596         0.00000000       0.00000000       0.00000000          1
H        14.46857060      10.30688501       7.09614491         0.00000000       0.00000000       0.00000000          1
H        10.56011209       0.00765283      12.67402419         0.00000000       0.00000000       0.00000000          1
6
pbc=[F, F, F] list_num_par=6 energy=-0.04377506 iter=129 frozen=false Lattice="15.00000000 0.00000000 0.00000000 0.00000000 15.00000000 0.00000000 0.00000000 0.00000000 15.00000000" energy_frozen_part=0.00000000 Properties=species:S:1:pos:R:3:velocities:R:3:Z:I:1
H        12.91126032       8.43405192       7.12092188         0.00000000       0.00000000       0.00000000          1
H         2.34787116       3.09907452       4.32846016         0.00000000       0.00000000       0.00000000          1
H         4.67848485       6.09485957       4.90427025         0.00000000       0.00000000       0.00000000          1
H         4.23122549      11.01271353       7.12281354         0.00000000       0.00000000       0.00000000          1
H        12.97256047      11.16447264       3.51651348         0.00000000       0.00000000       0.00000000          1
H        10.92263510      10.30044572      13.89700870         0.00000000       0.00000000       0.00000000          1
6
pbc=[F, F, F] list_num_par=6 energy=-0.04872033 iter=139 frozen=false Lattice="15.00000000 0.00000000 0.00000000 0.00000000 15.00000000 0.00000000 0.00000000 0.00000000 15.00000000" energy_frozen_part=0.00000000 Properties=species:S:1:pos:R:3:velocities:R:3:Z:I:1
H         1.17686632      10.86989445       5.54426555         0.00000000       0.00000000       0.00000000          1
H         0.13182344       4.15611259      12.87404735         0.00000000       0.00000000       0.00000000          1
H        10.46085267       8.17366379       2.30486287         0.00000000       0.00000000       0.00000000          1
H         0.77365588      13.38363655       9.75797959         0.00000000       0.00000000       0.00000000          1
H        14.09495860      10.64971829       6.50947010         0.00000000       0.00000000       0.00000000          1
H        13.98361479       7.03183321       6.81677819         0.00000000       0.00000000       0.00000000          1
6
pbc=[F, F, F] list_num_par=6 energy=-0.05669338 iter=149 frozen=false Lattice="15.00000000 0.00000000 0.00000000 0.00000000 15.00000000 0.00000000 0.00000000 0.00000000 15.00000000" energy_frozen_part=0.00000000 Properties=species:S:1:pos:R:3:velocities:R:3:Z:I:1
H        13.22396039       2.36764177       9.39323869         0.00000000       0.00000000       0.00000000          1
H         4.80405694       8.80415763      11.37012507         0.00000000       0.00000000       0.00000000          1
H         3.99530390       3.96632954       3.24193475         0.00000000       0.00000000       0.00000000          1
H         4.19688959       3.69653916      11.18678517         0.00000000       0.00000000       0.00000000          1
H         4.39961894       4.46453782       7.16868002         0.00000000       0.00000000       0.00000000          1
H         9.11248078       5.69267807      13.37099490         0.00000000       0.00000000       0.00000000          1
6
pbc=[F, F, F] list_num_par=6 energy=-0.06442501 iter=159 frozen=false Lattice="15.00000000 0.00000000 0.00000000 0.00000000 15.00000000 0.00000000 0.00000000 0.00000000 15.00000000" energy_frozen_part=0.00000000 Properties=species:S:1:pos:R:3:velocities:R:3:Z:I:1
H         9.15531286       2.32778207       3.34405437         0.00000000       0.00000000       0.00000000          1
H         4.08908943      14.90793103      14.52932488         0.00000000       0.00000000       0.00000000          1
H         9.10238736       7.36202527       2.52029033         0.00000000       0.00000000       0.00000000          1
H         2.58774161       9.53252784       0.79932810         0.00000000       0.00000000       0.00000000          1
H         9.33067205       3.62695068       0.07326778         0.00000000       0.00000000       0.00000000          1
H         1.58719791      10.50782410       6.61896780         0.00000000       0.00000000       0.00000000          1
6
pbc=[F, F, F] list_num_par=6 energy=-0.07134102 iter=169 frozen=false Lattice="15.00000000 0.00000000 0.00000000 0.00000000 15.00000000 0.00000000 0.00000000 0.00000000 15.00000000" energy_frozen_part=0.00000000 Properties=species:S:1:pos:R:3:velocities:R:3:Z:I:1
H         1.73881430       7.59267537       9.09796315         0.00000000       0.00000000       0.00000000          1
H        12.60789442      13.84001104       5.55058773         0.00000000       0.00000000       0.00000000          1
H         3.50638172      13.08818546       3.61983206         0.00000000       0.00000000       0.00000000          1
H        12.56420714      14.89900480       2.28917741         0.00000000       0.00000000       0.00000000          1
H        12.45425671       9.70447312       5.64586705         0.00000000       0.00000000       0.00000000          1
H        14.03166880       1.97372401      14.73658160         0.00000000       0.00000000       0.00000000          1
6
pbc=[F, F, F] list_num_par=6 energy=-0.07843511 iter=179 frozen=false Lattice="15.00000000 0.00000000 0.00000000 0.00000000 15.00000000 0.00000000 0.00000000 0.00000000 15.00000000" energy_frozen_part=0.00000000 Properties=species:S:1:pos:R:3:velocities:R:3:Z:I:1
H         1.03053612      13.07736192       1.73467076         0.00000000       0.00000000       0.00000000          1
H         4.13657043       3.27960836       8.42279974         0.00000000       0.00000000       0.00000000          1
H         3.69704079      11.49637922       2.41849729         0.00000000       0.00000000       0.00000000          1
H        12.24550342      12.60454886      14.11770416         0.00000000       0.00000000       0.00000000          1
H         9.82960771       5.25670457       5.07138066         0.00000000       0.00000000       0.00000000          1
H        14.47952506       6.87904498       3.52315661         0.00000000       0.00000000       0.00000000          1
6
pbc=[F, F, F] list_num_par=6 energy=-0.08266627 iter=189 frozen=false Lattice="15.00000000 0.00000000 0.00000000 0.00000000 15.00000000 0.00000000 0.00000000 0.00000000 15.00000000" energy_frozen_part=0.00000000 Properties=species:S:1:pos:R:3:velocities:R:3:Z:I:1
H         9.99495560       7.25378897       3.81426762         0.00000000       0.00000000       0.00000000          1
H         7.48491370       8.47734864       5.32794620         0.00000000       0.00000000       0.00000000          1
H         2.20892155      12.46729185      11.86355882         0.00000000       0.00000000       0.00000000          1
H        12.61007173       4.30821918       9.54477370         0.00000000       0.00000000       0.00000000          1
H         5.27826731       4.58689075       9.41237355         0.00000000       0.00000000       0.00000000          1
H        13.77721456       9.96103302       1.85755400         0.00000000       0.00000000       0.00000000          1
6
pbc=[F, F, F] list_num_par=6 energy=-0.08685359 iter=199 frozen=false Lattice="15.00000000 0.00000000 0.00000000 0.00000000 15.00000000 0.00000000 0.00000000 0.00000000 15.00000000" energy_frozen_part=0.00000000 Properties=species:S:1:pos:R:3:velocities:R:3:Z:I:1
H         2.21965023      14.33151588       0.61746840         0.00000000       0.00000000       0.00000000          1
H         4.91873350       2.67705279       7.73965207         0.00000000       0.00000000       0.00000000          1
H         2.90841323       7.94395456       4.56459446         0.00000000       0.00000000       0.00000000          1
H         2.68069126      13.77125852      12.18064276         0.00000000       0.00000000       0.00000000          1
H        13.35665963       7.07905114       7.08611309         0.00000000       0.00000000       0.00000000          1
H        10.81838518       7.56899043       5.47060106         0.00000000       0.00000000       0.00000000          1
6
pbc=[F, F, F] list_num_par=6 energy=-0.09179392 iter=209 frozen=false Lattice="15.00000000 0.00000000 0.00000000 0.00000000 15.00000000 0.00000000 0.00000000 0.00000000 15.00000000" energy_frozen_part=0.00000000 Properties=species:S:1:pos:R:3:velocities:R:3:Z:I:1
H        12.64438588       9.53625296       3.85441378         0.00000000       0.00000000       0.00000000          1
H        10.63168360       6.15242888       0.54886304         0.00000000       0.00000000       0.00000000          1
H         9.62506696       4.13061720       9.01166981         0.00000000       0.00000000       0.00000000          1
H         5.09082094       2.13656160       9.62445716         0.00000000       0.00000000       0.00000000          1
H        10.62304658       9.58628449       0.63470534         0.00000000       0.00000000       0.00000000          1
H         1.05016154       8.50939411       1.02799238         0.00000000       0.00000000       0.00000000          1
6
pbc=[F, F, F] list_num_par=6 energy=-0.09573936 iter=219 frozen=false Lattice="15.00000000 0.00000000 0.00000000 0.00000000 15.00000000 0.00000000 0.00000000 0.00000000 15.00000000" energy_frozen_part=0.00000000 Properties=species:S:1:pos:R:3:velocities:R:3:Z:I:1
H         3.21585327      11.02659896      12.52553990         0.00000000       0.00000000       0.00000000          1
H         6.74647347       9.18310846       7.08672613         0.00000000       0.00000000       0.00000000          1
H        12.86372057      11.25402579      13.49444444         0.00000000       0.00000000       0.00000000          1
H        10.41098537       7.12640411       7.20898605         0.00000000       0.00000000       0.00000000          1
H         9.77820741      11.85814397      14.01748776         0.00000000       0.00000000       0.00000000          1
H         2.63967803       5.90125063       9.01413845         0.00000000       0.00000000       0.00000000          1
6
pbc=[F, F, F] list_num_par=6 energy=-0.10010202 iter=229 frozen=false Lattice="15.00000000 0.00000000 0.00000000 0.00000000 15.00000000 0.00000000 0.00000000 0.00000000 15.00000000" energy_frozen_part=0.00000000 Properties=species:S:1:pos:R:3:velocities:R:3:Z:I:1
H        13.67990220       6.70261919      13.89303721         0.00000000       0.00000000       0.00000000          1
H        12.36419026       2.21921976      12.89124395         0.00000000       0.00000000       0.00000000          1
H         0.11779834       9.76257798       0.78525867         0.00000000       0.00000000       0.00000000          1
H         3.25733705       9.30435932       2.21294336         0.00000000       0.00000000       0.00000000          1
H         0.19248927       6.18720467       2.29614148         0.00000000       0.00000000       0.00000000          1
H         0.59243966       4.56904493       7.31033096         0.00000000       0.00000000       0.00000000          1
6
pbc=[F, F, F] list_num_par=6 energy=-0.10201776 iter=239 frozen=false Lattice="15.00000000 0.00000000 0.00000000 0.00000000 15.00000000 0.00000000 0.00000000 0.00000000 15.00000000" energy_frozen_part=0.00000000 Properties=species:S:1:pos:R:3:velocities:R:3:Z:I:1
H         9.69847698       7.58127008       6.94899307         0.00000000       0.00000000       0.00000000          1
H        11.01213907       7.64946957       4.65701845         0.00000000       0.00000000       0.00000000          1
H         8.63798560      12.83861402       5.69433214         0.00000000       0.00000000       0.00000000          1
H         2.72109306      13.72934569       9.43545548         0.00000000       0.00000000       0.00000000          1
H         2.36879540      10.58095068      12.42664962         0.00000000       0.00000000       0.00000000          1
H        14.98288143       3.47859330      10.45955910         0.00000000       0.00000000       0.00000000          1
6
pbc=[F, F, F] list_num_par=6 energy=-0.10478603 iter=249 frozen=false Lattice="15.00000000 0.00000000 0.00000000 0.00000000 15.00000000 0.00000000 0.00000000 0.00000000 15.00000000" energy_frozen_part=0.00000000 Properties=species:S:1:pos:R:3:velocities:R:3:Z:I:1
H         2.60460996       7.12036979       5.46121664         0.00000000       0.00000000       0.00000000          1
H         3.55165187       0.03127369       2.32995667         0.00000000       0.00000000       0.00000000          1
H         1.82253508       2.56410322       8.29125329         0.00000000       0.00000000       0.00000000          1
H        14.91171573      14.74606569      10.27375822         0.00000000       0.00000000       0.00000000          1
H         3.89470067       9.55448312       4.69800255         0.00000000       0.00000000       0.00000000          1
H        10.48893041       0.01410088       1.23154448         0.00000000       0.00000000       0.00000000          1
6
pbc=[F, F, F] list_num_par=6 energy=-0.10826692 iter=259 frozen=false Lattice="15.00000000 0.00000000 0.00000000 0.00000000 15.00000000 0.00000000 0.00000000 0.00000000 15.00000000" energy_frozen_part=0.00000000 Properties=species:S:1:pos:R:3:velocities:R:3:Z:I:1
H        11.57970611       9.61550619       0.95432662         0.00000000       0.00000000       0.00000000          1
H        14.42972112       7.22954049       4.19482618         0.00000000       0.00000000       0.00000000          1
H         8.25088583       2.32874654      14.15632100         0.00000000       0.00000000       0.00000000          1
H        11.46341719       6.48299490       3.97238769         0.00000000       0.00000000       0.00000000          1
H         7.74224702      12.81108042       3.62811309         0.00000000       0.00000000       0.00000000          1
H         2.33520324       0.87976068      12.97648021         0.00000000       0.00000000       0.00000000          1
6
pbc=[F, F, F] list_num_par=6 energy=-0.11247467 iter=269 frozen=false Lattice="15.00000000 0.00000000 0.00000000 0.00000000 15.00000000 0.00000000 0.00000000 0.00000000 15.00000000" energy_frozen_part=0.00000000 Properties=species:S:1:pos:R:3:velocities:R:3:Z:I:1
H        11.15011530       9.21049126       0.52425697         0.00000000       0.00000000       0.00000000          1
H        14.42075644       7.20242992       4.06305651         0.00000000       0.00000000       0.00000000          1
H         8.70499040       2.33072217      13.94617518         0.00000000       0.00000000       0.00000000          1
H        11.75359625       6.05932357       4.08597466         0.00000000       0.00000000       0.00000000          1
H         7.79736202      13.11606935       3.84623623         0.00000000       0.00000000       0.00000000          1
H         2.47765209       1.17388812      13.19482667         0.00000000       0.00000000       0.00000000          1
6
pbc=[F, F, F] list_num_par=6 energy=-0.11636741 iter=279 frozen=false Lattice="15.00000000 0.00000000 0.00000000 0.00000000 15.00000000 0.00000000 0.00000000 0.00000000 15.00000000" energy_frozen_part=0.00000000 Properties=species:S:1:pos:R:3:velocities:R:3:Z:I:1
H        14.06184735      12.12117220      12.78395464         0.00000000       0.00000000       0.00000000          1
H         0.92957514      13.54409449       0.98608760         0.00000000       0.00000000       0.00000000          1
H        13.80607083       8.16039780       4.86770435         0.00000000       0.00000000       0.00000000          1
H        11.81090490      13.77084025      12.04083953         0.00000000       0.00000000       0.00000000          1
H         2.14572737       6.32215119      12.52662806         0.00000000       0.00000000       0.00000000          1
H         2.08720409      10.38070898      13.24528026         0.00000000       0.00000000       0.00000000          1
6
pbc=[F, F, F] list_num_par=6 energy=-0.11995006 iter=289 frozen=false Lattice="15.00000000 0.00000000 0.00000000 0.00000000 15.00000000 0.00000000 0.00000000 0.00000000 15.00000000" energy_frozen_part=0.00000000 Properties=species:S:1:pos:R:3:velocities:R:3:Z:I:1
H        10.74176146       6.26222419       2.45853755         0.00000000       0.00000000       0.00000000          1
H        12.79062796       4.60566375       1.73656916         0.00000000       0.00000000       0.00000000          1
H        11.02412473       8.65295790      12.14797911         0.00000000       0.00000000       0.00000000          1
H         7.07567043       5.08310053       1.15860735         0.00000000       0.00000000       0.00000000          1
H         7.74105888      14.46162805       2.51410708         0.00000000       0.00000000       0.00000000          1
H         4.20072739       0.92057932      10.84780597         0.00000000       0.00000000       0.00000000          1
6
pbc=[F, F, F] list_num_par=6 energy=-0.12199289 iter=299 frozen=false Lattice="15.00000000 0.00000000 0.00000000 0.00000000 15.00000000 0.00000000 0.00000000 0.00000000 15.00000000" energy_frozen_part=0.00000000 Properties=species:S:1:pos:R:3:velocities:R:3:Z:I:1
H         2.56347284       2.26468944       4.95602804         0.00000000       0.00000000       0.00000000          1
H         8.70735294      10.83787282       7.39934039         0.00000000       0.00000000       0.00000000          1
H         4.80571954      10.31593839      11.58535153         0.00000000       0.00000000       0.00000000          1
H         5.48013815       8.03313640       9.89120339         0.00000000       0.00000000       0.00000000          1
H         1.25229087       2.35621265       2.80650518         0.00000000       0.00000000       0.00000000          1
H        13.42459090       4.18107429       4.24535711         0.00000000       0.00000000       0.00000000          1
6
pbc=[F, F, F] list_num_par=6 energy=-0.12396158 iter=309 frozen=false Lattice="15.00000000 0.00000000 0.00000000 0.00000000 15.00000000 0.00000000 0.00000000 0.00000000 15.00000000" energy_frozen_part=0.00000000 Properties=species:S:1:pos:R:3:velocities:R:3:Z:I:1
H         7.15266036       7.20730919       5.62596277         0.00000000       0.00000000       0.00000000          1
H         6.12868760       0.94609235       5.46516138         0.00000000       0.00000000       0.00000000          1