6
pbc=[F, F, F] list_num_par=6 frozen=false iter=9 energy=13.98514058 Lattice="15.00000000 0.00000000 0.00000000 0.00000000 15.00000000 0.00000000 0.00000000 0.00000000 15.00000000" energy_frozen_part=0.00000000 Properties=species:S:1:pos:R:3:velocities:R:3:Z:I:1
H         2.99762228      12.48900705       2.13401599         0.00000000       0.00000000       0.00000000          1
H        11.18895101       7.45460096       7.69096777         0.00000000       0.00000000       0.00000000          1
H         3.94057981      13.99804820       2.57383622         0.00000000       0.00000000       0.00000000          1
H         0.73372702       7.64514145       6.10259710         0.00000000       0.00000000       0.00000000          1
H         2.76437558       9.45054474       9.61591945         0.00000000       0.00000000       0.00000000          1
H        11.31108340      11.85664472       1.08527993         0.00000000       0.00000000       0.00000000          1
6
pbc=[F, F, F] list_num_par=6 frozen=false iter=19 energy=1.45207504 Lattice="15.00000000 0.00000000 0.00000000 0.00000000 15.00000000 0.00000000 0.00000000 0.00000000 15.00000000" energy_frozen_part=0.00000000 Properties=species:S:1:pos:R:3:velocities:R:3:Z:I:1
H         0.89698096       7.72868005      10.73920945         0.00000000       0.00000000       0.00000000          1
H        14.82934581      14.47964665       1.53361076         0.00000000       0.00000000       0.00000000          1
H         6.10691741       2.07382992       9.04550985         0.00000000       0.00000000       0.00000000          1
H         4.75302360       3.31215684       7.93469500         0.00000000       0.00000000       0.00000000          1
H         1.48095386      10.49063518       8.02371917         0.00000000       0.00000000       0.00000000          1
H         2.62995685      13.92638238       7.12297844         0.00000000       0.00000000       0.00000000          1
6
pbc=[F, F, F] list_num_par=6 frozen=false iter=29 energy=-0.00068791 Lattice="15.00000000 0.00000000 0.00000000 0.00000000 15.00000000 0.00000000 0.00000000 0.00000000 15.00000000" energy_frozen_part=0.00000000 Properties=species:S:1:pos:R:3:velocities:R:3:Z:I:1
H         0.97636779       3.19311275      12.77902672         0.00000000       0.00000000       0.00000000          1
H         0.86202126       7.78789802       6.73124905         0.00000000       0.00000000       0.00000000          1
H        13.07622540       6.11758586       2.02696143         0.00000000       0.00000000       0.00000000          1
H        12.47303377      14.39410631       5.73876833         0.00000000       0.00000000       0.00000000          1
H         5.34504631      13.92219066      11.16577573         0.00000000       0.00000000       0.00000000          1
H        14.13805940       5.03863855      12.83998524         0.00000000       0.00000000       0.00000000          1
6
pbc=[F, F, F] list_num_par=6 frozen=false iter=39 energy=-0.00618480 Lattice="15.00000000 0.00000000 0.00000000 0.00000000 15.00000000 0.00000000 0.00000000 0.00000000 15.00000000" energy_frozen_part=0.00000000 Properties=species:S:1:pos:R:3:velocities:R:3:Z:I:1
H         1.74731444       0.58894590       8.10550842         0.00000000       0.00000000       0.00000000          1
H         0.61000697       3.27990706       1.28837494         0.00000000       0.00000000       0.00000000          1
H         6.87718492      14.51647144      13.46111641         0.00000000       0.00000000       0.00000000          1
H        10.08617220       8.94950439       6.59379050         0.00000000       0.00000000       0.00000000          1
H         9.13200869      14.09474532       4.35021917         0.00000000       0.00000000       0.00000000          1
H         6.86887615       4.47726994       3.79891436         0.00000000       0.00000000       0.00000000          1
6
pbc=[F, F, F] list_num_par=6 frozen=false iter=49 energy=-0.00878146 Lattice="15.00000000 0.00000000 0.00000000 0.00000000 15.00000000 0.00000000 0.00000000 0.00000000 15.00000000" energy_frozen_part=0.00000000 Properties=species:S:1:pos:R:3:velocities:R:3:Z:I:1
H         3.11284446      10.10371799       1.73027020         0.00000000       0.00000000       0.00000000          1
H        14.35963544      12.31082785      11.08687802         0.00000000       0.00000000       0.00000000          1
H        14.73867568       1.78574600       3.16149250         0.00000000       0.00000000       0.00000000          1
H        12.49875004       8.08030288      12.73033772         0.00000000       0.00000000       0.00000000          1
H         7.14645142       2.46946197       6.74398329         0.00000000       0.00000000       0.00000000          1
H         1.26622204       5.89770927       6.69413850         0.00000000       0.00000000       0.00000000          1
6
pbc=[F, F, F] list_num_par=6 frozen=false iter=59 energy=-0.01105643 Lattice="15.00000000 0.00000000 0.00000000 0.00000000 15.00000000 0.00000000 0.00000000 0.00000000 15.00000000" energy_frozen_part=0.00000000 Properties=species:S:1:pos:R:3:velocities:R:3:Z:I:1
H         9.16771201      12.36372430       1.24851734         0.00000000       0.00000000       0.00000000          1
H         4.23127667       2.70744277       6.51463846         0.00000000       0.00000000       0.00000000          1
H         7.83939135       2.87120242      14.04390509         0.00000000       0.00000000       0.00000000          1
H         1.92946925      14.00174250       2.05835085         0.00000000       0.00000000       0.00000000          1
H        12.10549041       8.33692172       4.82509448         0.00000000       0.00000000       0.00000000          1
H         8.05754615      14.44958994       5.46254398         0.00000000       0.00000000       0.00000000          1
6
pbc=[F, F, F] list_num_par=6 frozen=false iter=69 energy=-0.01227059 Lattice="15.00000000 0.00000000 0.00000000 0.00000000 15.00000000 0.00000000 0.00000000 0.00000000 15.00000000" energy_frozen_part=0.00000000 Properties=species:S:1:pos:R:3:velocities:R:3:Z:I:1
H         9.00996408       1.13928655       8.87840611         0.00000000       0.00000000       0.00000000          1
H        13.44064096       7.26400946       8.51128034         0.00000000       0.00000000       0.00000000          1
H         3.80008884       0.60663367      12.74979937         0.00000000       0.00000000       0.00000000          1
H         4.71753002       7.45672117      11.21066916         0.00000000       0.00000000       0.00000000          1
H        13.79151440      12.61663460      10.69936222         0.00000000       0.00000000       0.00000000          1
H        11.31334118       5.22338683       4.44695542         0.00000000       0.00000000       0.00000000          1
6
pbc=[F, F, F] list_num_par=6 frozen=false iter=79 energy=-0.01548812 Lattice="15.00000000 0.00000000 0.00000000 0.00000000 15.00000000 0.00000000 0.00000000 0.00000000 15.00000000" energy_frozen_part=0.00000000 Properties=species:S:1:pos:R:3:velocities:R:3:Z:I:1
H         0.27269161       8.35457593      14.13077806         0.00000000       0.00000000       0.00000000          1
H        14.03733751       0.81965510       3.80870586         0.00000000       0.00000000       0.00000000          1
H         2.20725731       4.03504094      13.59937334         0.00000000       0.00000000       0.00000000          1
H        10.89338779       4.64286679       3.29328136         0.00000000       0.00000000       0.00000000          1
H        11.55561574       2.73850817      10.28220039         0.00000000       0.00000000       0.00000000          1
H         0.47456650       6.95743631       3.26868802         0.00000000       0.00000000       0.00000000          1
6
pbc=[F, F, F] list_num_par=6 frozen=false iter=89 energy=-0.02016255 Lattice="15.00000000 0.00000000 0.00000000 0.00000000 15.00000000 0.00000000 0.00000000 0.00000000 15.00000000" energy_frozen_part=0.00000000 Properties=species:S:1:pos:R:3:velocities:R:3:Z:I:1
H        11.94582708       8.96485115       9.47944157         0.00000000       0.00000000       0.00000000          1
H         9.35097854       0.66928096      14.41984459         0.00000000       0.00000000       0.00000000          1
H         6.92090160      14.05129124       4.91540977         0.00000000       0.00000000       0.00000000          1
H         2.04695806       3.31207734       5.64719021         0.00000000       0.00000000       0.00000000          1
H         8.51478774       9.16144609       6.90963314         0.00000000       0.00000000       0.00000000          1
H        13.92737898       4.84961262       4.68248295         0.00000000       0.00000000       0.00000000          1
6
pbc=[F, F, F] list_num_par=6 frozen=false iter=99 energy=-0.02378028 Lattice="15.00000000 0.00000000 0.00000000 0.00000000 15.00000000 0.00000000 0.00000000 0.00000000 15.00000000" energy_frozen_part=0.00000000 Properties=species:S:1:pos:R:3:velocities:R:3:Z:I:1
H        14.91000125       7.67140941       4.73048497         0.00000000       0.00000000       0.00000000          1
H         0.56583214       3.20239087      14.90633183         0.00000000       0.00000000       0.00000000          1
H         4.08697149      14.57134328       9.77825212         0.00000000       0.00000000       0.00000000          1
H         1.18296763       9.36672672       0.49874353         0.00000000       0.00000000       0.00000000          1
H        10.33699862      10.66841091       3.38260641         0.00000000       0.00000000       0.00000000          1
H         4.22371900      11.72979858       1.92122655         0.00000000       0.00000000       0.00000000          1
6
pbc=[F, F, F] list_num_par=6 frozen=false iter=109 energy=-0.02665240 Lattice="15.00000000 0.00000000 0.00000000 0.00000000 15.00000000 0.00000000 0.00000000 0.00000000 15.00000000" energy_frozen_part=0.00000000 Properties=species:S:1:pos:R:3:velocities:R:3:Z:I:1
H        13.56146778      12.83511993       5.35145793         0.00000000       0.00000000       0.00000000          1
H         4.31920368      12.03301007       3.88456051         0.00000000       0.00000000       0.00000000          1
H        13.25995063       3.33908864       0.16676885         0.00000000       0.00000000       0.00000000          1
H         1.39053122       1.88904708       9.30833522         0.00000000       0.00000000       0.00000000          1
H        11.61113738       6.84815980       0.54845650         0.00000000       0.00000000       0.00000000          1
H         6.47608289      13.51999061      11.22803552         0.00000000       0.00000000       0.00000000          1
6
pbc=[F, F, F] list_num_par=6 frozen=false iter=119 energy=-0.03135712 Lattice="15.00000000 0.00000000 0.00000000 0.00000000 15.00000000 0.00000000 0.00000000 0.00000000 15.00000000" energy_frozen_part=0.00000000 Properties=species:S:1:pos:R:3:velocities:R:3:Z:I:1
H         9.50787082       7.24662559       3.96107492         0.00000000       0.00000000       0.00000000          1
H         8.67708708       5.25212690       0.70640663         0.00000000       0.00000000       0.00000000          1
H         4.78458113       6.93278461      11.79721420         0.00000000       0.00000000       0.00000000          1
H         0.03573959       7.02455345       8.26477688         0.00000000       0.00000000       0.00000000          1
H         0.56035759       2.48057263      12.65570475         0.00000000       0.00000000       0.00000000          1
H        10.36319706       2.79428388      13.63328588         0.00000000       0.00000000       0.00000000          1
6
pbc=[F, F, F] list_num_par=6 frozen=false iter=129 energy=-0.03601388 Lattice="15.00000000 0.00000000 0.00000000 0.00000000 15.00000000 0.00000000 0.00000000 0.00000000 15.00000000" energy_frozen_part=0.00000000 Properties=species:S:1:pos:R:3:velocities:R:3:Z:I:1
H         6.76677312       6.31229955       1.98843514         0.00000000       0.00000000       0.00000000          1
H        10.02409615       5.72795528       8.68637623         0.00000000       0.00000000       0.00000000          1
H         0.50799909       1.78411501       5.00625069         0.00000000       0.00000000       0.00000000          1
H         5.25913028       2.80887117       3.43387131         0.00000000       0.00000000       0.00000000          1
H         5.02348423       5.40572445       8.83331402         0.00000000       0.00000000       0.00000000          1
H        13.89632179      11.14640370       3.35376672         0.00000000       0.00000000       0.00000000          1
6
pbc=[F, F, F] list_num_par=6 frozen=false iter=139 energy=-0.03923790 Lattice="15.00000000 0.00000000 0.00000000 0.00000000 15.00000000 0.00000000 0.00000000 0.00000000 15.00000000" energy_frozen_part=0.00000000 Properties=species:S:1:pos:R:3:velocities:R:3:Z:I:1
H        11.62527073      11.75742859       9.59056334         0.00000000       0.00000000       0.00000000          1
H         5.82743932      10.67879558      11.30885953         0.00000000       0.00000000       0.00000000          1
H        12.90529971       9.91883048      12.60374696         0.00000000       0.00000000       0.00000000          1
H         0.70194689       0.33142346       5.81441656         0.00000000       0.00000000       0.00000000          1
H         1.37300669       9.17912496       9.24677648         0.00000000       0.00000000       0.00000000          1
H        12.81095267      10.33552707       0.08004912         0.00000000       0.00000000       0.00000000          1
6
pbc=[F, F, F] list_num_par=6 frozen=false iter=149 energy=-0.04478317 Lattice="15.00000000 0.00000000 0.00000000 0.00000000 15.00000000 0.00000000 0.00000000 0.00000000 15.00000000" energy_frozen_part=0.00000000 Properties=species:S:1:pos:R:3:velocities:R:3:Z:I:1
H         2.68097905      12.99353609      10.54675809         0.00000000       0.00000000       0.00000000          1
H         4.57987657      14.40144658       7.65258529         0.00000000       0.00000000       0.00000000          1
H         3.76356808       5.45146315       9.93174231         0.00000000       0.00000000       0.00000000          1
H         9.05392240       9.24996874       4.68779437         0.00000000       0.00000000       0.00000000          1
H        14.39038183      11.03048396       6.50423696         0.00000000       0.00000000       0.00000000          1
H         5.46039254      10.44240070       1.81392988         0.00000000       0.00000000       0.00000000          1
6
pbc=[F, F, F] list_num_par=6 frozen=false iter=159 energy=-0.04801269 Lattice="15.00000000 0.00000000 0.00000000 0.00000000 15.00000000 0.00000000 0.00000000 0.00000000 15.00000000" energy_frozen_part=0.00000000 Properties=species:S:1:pos:R:3:velocities:R:3:Z:I:1
H        10.17388271       9.24048748      10.68841488         0.00000000       0.00000000       0.00000000          1
H        10.04828177      13.21716858      10.10413475         0.00000000       0.00000000       0.00000000          1
H        12.03372754      13.89174656      13.49211626         0.00000000       0.00000000       0.00000000          1
H         1.83951224       4.53180983       6.42117686         0.00000000       0.00000000       0.00000000          1
H         3.47637542      12.03949967      14.92433200         0.00000000       0.00000000       0.00000000          1
H        14.48305036       4.30812733      14.50113300         0.00000000       0.00000000       0.00000000          1
6
pbc=[F, F, F] list_num_par=6 frozen=false iter=169 energy=-0.05423773 Lattice="15.00000000 0.00000000 0.00000000 0.00000000 15.00000000 0.00000000 0.00000000 0.00000000 15.00000000" energy_frozen_part=0.00000000 Properties=species:S:1:pos:R:3:velocities:R:3:Z:I:1
H         4.67852579       3.83895222       2.12229441         0.00000000       0.00000000       0.00000000          1
H         9.02865496      12.23598717      14.63109977         0.00000000       0.00000000       0.00000000          1
H        11.83823689       9.01786690      10.86477462         0.00000000       0.00000000       0.00000000          1
H         7.61044810       2.78681739       0.65312830         0.00000000       0.00000000       0.00000000          1
H         3.58023030      14.20534024      12.41341971         0.00000000       0.00000000       0.00000000          1
H        13.89199216       0.11185860      14.09700111         0.00000000       0.00000000       0.00000000          1
6
pbc=[F, F, F] list_num_par=6 frozen=false iter=179 energy=-0.05962727 Lattice="15.00000000 0.00000000 0.00000000 0.00000000 15.00000000 0.00000000 0.00000000 0.00000000 15.00000000" energy_frozen_part=0.00000000 Properties=species:S:1:pos:R:3:velocities:R:3:Z:I:1
H         8.25443329       2.13133693       3.35975265         0.00000000       0.00000000       0.00000000          1
H         7.54970865       4.36362872      10.32185437         0.00000000       0.00000000       0.00000000          1
H         2.11138274       0.28078510      10.74299310         0.00000000       0.00000000       0.00000000          1
H         8.83044913       6.85395759      12.49618831         0.00000000       0.00000000       0.00000000          1
H         7.47172818       0.57703347      14.00990830         0.00000000       0.00000000       0.00000000          1
H         7.64263068       6.87731431       4.79526514         0.00000000       0.00000000       0.00000000          1
6
pbc=[F, F, F] list_num_par=6 frozen=false iter=189 energy=-0.06424766 Lattice="15.00000000 0.00000000 0.00000000 0.00000000 15.00000000 0.00000000 0.00000000 0.00000000 15.00000000" energy_frozen_part=0.00000000 Properties=species:S:1:pos:R:3:velocities:R:3:Z:I:1
H         6.24352230      12.43063114      14.61196139         0.00000000       0.00000000       0.00000000          1
H        14.65380646       6.22538426       7.64633129         0.00000000       0.00000000       0.00000000          1
H         9.41613961       5.84239330       7.12172738         0.00000000       0.00000000       0.00000000          1
H         2.32275113      11.62459479      11.41743603         0.00000000       0.00000000       0.00000000          1
H         0.31745967       3.99248800       5.36686455         0.00000000       0.00000000       0.00000000          1
H         2.02756957       9.23710040       9.01176168         0.00000000       0.00000000       0.00000000          1
6
pbc=[F, F, F] list_num_par=6 frozen=false iter=199 energy=-0.06726880 Lattice="15.00000000 0.00000000 0.00000000 0.00000000 15.00000000 0.00000000 0.00000000 0.00000000 15.00000000" energy_frozen_part=0.00000000 Properties=species:S:1:pos:R:3:velocities:R:3:Z:I:1
H        13.97415927       2.18785412      10.40448916         0.00000000       0.00000000       0.00000000          1
H         5.93314152      13.98562585       7.00417398         0.00000000       0.00000000       0.00000000          1
H         3.72282180      14.59784127       4.03026882         0.00000000       0.00000000       0.00000000          1
H         8.71939567      11.03561859       5.24306373         0.00000000       0.00000000       0.00000000          1
H         9.90291669       1.06410102       8.72709279         0.00000000       0.00000000       0.00000000          1
H        11.02144884       1.67099767       4.30755072         0.00000000       0.00000000       0.00000000          1
6
pbc=[F, F, F] list_num_par=6 frozen=false iter=209 energy=-0.07274217 Lattice="15.00000000 0.00000000 0.00000000 0.00000000 15.00000000 0.00000000 0.00000000 0.00000000 15.00000000" energy_frozen_part=0.00000000 Properties=species:S:1:pos:R:3:velocities:R:3:Z:I:1
H         3.18691961       8.53349920      12.42530188         0.00000000       0.00000000       0.00000000          1
H         0.01180017      11.46242578       0.56499790         0.00000000       0.00000000       0.00000000          1
H        13.30168932       2.76810425       4.70084314         0.00000000       0.00000000       0.00000000          1
H         0.01677103       6.32156770       6.32181055         0.00000000       0.00000000       0.00000000          1
H        11.89180697       3.05264831       1.85704728         0.00000000       0.00000000       0.00000000          1
H        10.15153279      10.77110401       2.19101550         0.00000000       0.00000000       0.00000000          1
6
pbc=[F, F, F] list_num_par=6 frozen=false iter=219 energy=-0.08130209 Lattice="15.00000000 0.00000000 0.00000000 0.00000000 15.00000000 0.00000000 0.00000000 0.00000000 15.00000000" energy_frozen_part=0.00000000 Properties=species:S:1:pos:R:3:velocities:R:3:Z:I:1
H         9.79320752       4.51402694       1.23839608         0.00000000       0.00000000       0.00000000          1
H        11.79153981       6.46191981      11.03393960         0.00000000       0.00000000       0.00000000          1
H         9.69827913      13.60806843      12.40836720         0.00000000       0.00000000       0.00000000          1
H         0.29042332       2.91091588       0.48823247         0.00000000       0.00000000       0.00000000          1
H         8.16576924      14.35064822      10.41300687         0.00000000       0.00000000       0.00000000          1
H        14.31001852       3.55367576      14.31279868         0.00000000       0.00000000       0.00000000          1
6
pbc=[F, F, F] list_num_par=6 frozen=false iter=229 energy=-0.08625397 Lattice="15.00000000 0.00000000 0.00000000 0.00000000 15.00000000 0.00000000 0.00000000 0.00000000 15.00000000" energy_frozen_part=0.00000000 Properties=species:S:1:pos:R:3:velocities:R:3:Z:I:1
H         6.67919499      11.76177580       3.43264078         0.00000000       0.00000000       0.00000000          1
H         2.86942128       9.32949176      10.70869452         0.00000000       0.00000000       0.00000000          1
H         8.88131572      14.47914407      12.81424399         0.00000000       0.00000000       0.00000000          1
H         1.13553766       4.74350461       1.20747915         0.00000000       0.00000000       0.00000000          1
H        10.58244125      14.90204036      10.33406849         0.00000000       0.00000000       0.00000000          1
H        11.61754066       4.48005518      13.18657843         0.00000000       0.00000000       0.00000000          1
6
pbc=[F, F, F] list_num_par=6 frozen=false iter=239 energy=-0.09133981 Lattice="15.00000000 0.00000000 0.00000000 0.00000000 15.00000000 0.00000000 0.00000000 0.00000000 15.00000000" energy_frozen_part=0.00000000 Properties=species:S:1:pos:R:3:velocities:R:3:Z:I:1
H         8.68797496       0.30427096       0.24353882         0.00000000       0.00000000       0.00000000          1
H        10.95354109       9.90377674      12.34056427         0.00000000       0.00000000       0.00000000          1
H        12.46863168       7.37810280       7.69689385         0.00000000       0.00000000       0.00000000          1
H         7.60187418       0.13049789       2.57819624         0.00000000       0.00000000       0.00000000          1
H        12.39417298      13.74507443      13.26941452         0.00000000       0.00000000       0.00000000          1
H        14.01426363       5.23584922      11.38866377         0.00000000       0.00000000       0.00000000          1
6
pbc=[F, F, F] list_num_par=6 frozen=false iter=249 energy=-0.09469944 Lattice="15.00000000 0.00000000 0.00000000 0.00000000 15.00000000 0.00000000 0.00000000 0.00000000 15.00000000" energy_frozen_part=0.00000000 Properties=species:S:1:pos:R:3:velocities:R:3:Z:I:1
H         6.55360970       2.31299168       1.25414819         0.00000000       0.00000000       0.00000000          1
H        13.89149441       2.78227333      11.56232295         0.00000000       0.00000000       0.00000000          1
H         5.55415438       4.10545918      11.72128495         0.00000000       0.00000000       0.00000000          1
H        11.80473936       4.76259558      12.65038389         0.00000000       0.00000000       0.00000000          1
H         8.15668518       1.87975659       8.40852629         0.00000000       0.00000000       0.00000000          1
H        10.83119649      14.42739590      12.70307800         0.00000000       0.00000000       0.00000000          1
6
pbc=[F, F, F] list_num_par=6 frozen=false iter=259 energy=-0.09779751 Lattice="15.00000000 0.00000000 0.00000000 0.00000000 15.00000000 0.00000000 0.00000000 0.00000000 15.00000000" energy_frozen_part=0.00000000 Properties=species:S:1:pos:R:3:velocities:R:3:Z:I:1
H         0.06671009       0.26386009      13.15460139         0.00000000       0.00000000       0.00000000          1
H         9.52449881      11.44159163       6.79064337         0.00000000       0.00000000       0.00000000          1
H         9.06339600      13.81283669       7.97836610         0.00000000       0.00000000       0.00000000          1
H         5.27334857      10.25708142      13.58055200         0.00000000       0.00000000       0.00000000          1
H        14.05604549       9.73556606      13.05655749         0.00000000       0.00000000       0.00000000          1
H        11.22216691      13.53967375       1.97360377         0.00000000       0.00000000       0.00000000          1
6
pbc=[F, F, F] list_num_par=6 frozen=false iter=269 energy=-0.10050869 Lattice="15.00000000 0.00000000 0.00000000 0.00000000 15.00000000 0.00000000 0.00000000 0.00000000 15.00000000" energy_frozen_part=0.00000000 Properties=species:S:1:pos:R:3:velocities:R:3:Z:I:1
H        14.78687018       1.68984398       1.69040390         0.00000000       0.00000000       0.00000000          1
H         4.65810261      10.06817911       4.02381029         0.00000000       0.00000000       0.00000000          1
H        10.15783117      10.41341781      14.46995269         0.00000000       0.00000000       0.00000000          1
H         4.81064516       4.80317313      12.27862857         0.00000000       0.00000000       0.00000000          1
H         7.20679890      11.23790932       4.29279856         0.00000000       0.00000000       0.00000000          1
H        14.47899856       4.12632319      13.46885737         0.00000000       0.00000000       0.00000000          1
6
pbc=[F, F, F] list_num_par=6 frozen=false iter=279 energy=-0.10341184 Lattice="15.00000000 0.00000000 0.00000000 0.00000000 15.00000000 0.00000000 0.00000000 0.00000000 15.00000000" energy_frozen_part=0.00000000 Properties=species:S:1:pos:R:3:velocities:R:3:Z:I:1
H        10.01612964      10.96671965       6.69454386         0.00000000       0.00000000       0.00000000          1
H        10.26183895      11.31193645       3.76725842         0.00000000       0.00000000       0.00000000          1
H        13.84678243       8.08149458       7.72654758         0.00000000       0.00000000       0.00000000          1
H         5.94364452       3.63092202       9.81209971         0.00000000       0.00000000       0.00000000          1
H        11.90259966       0.34075212       6.46528976         0.00000000       0.00000000       0.00000000          1
H         4.23319433       1.14190968       4.25789613         0.00000000       0.00000000       0.00000000          1
6
pbc=[F, F, F] list_num_par=6 frozen=false iter=289 energy=-0.10551624 Lattice="15.00000000 0.00000000 0.00000000 0.00000000 15.00000000 0.00000000 0.00000000 0.00000000 15.00000000" energy_frozen_part=0.00000000 Properties=species:S:1:pos:R:3:velocities:R:3:Z:I:1
H         2.36253972       7.89407511       3.00139139         0.00000000       0.00000000       0.00000000          1
H         2.92651338       0.14355199       8.45694837         0.00000000       0.00000000       0.00000000          1
H         3.17599489       1.00400424      13.53904750         0.00000000       0.00000000       0.00000000          1
H         7.83564829      11.12761481      12.30274793         0.00000000       0.00000000       0.00000000          1
H        10.38865885      11.42276711      13.46231655         0.00000000       0.00000000       0.00000000          1
H         3.93694671      14.64502183       6.01935449         0.00000000       0.00000000       0.00000000          1
6
pbc=[F, F, F] list_num_par=6 frozen=false iter=299 energy=-0.10708305 Lattice="15.00000000 0.00000000 0.00000000 0.00000000 15.00000000 0.00000000 0.00000000 0.00000000 15.00000000" energy_frozen_part=0.00000000 Properties=species:S:1:pos:R:3:velocities:R:3:Z:I:1
H        11.55073438       8.53139807       6.10289913         0.00000000       0.00000000       0.00000000          1
H         1.96171838       0.52346380      11.04749972         0.00000000       0.00000000       0.00000000          1
H        13.75833735       9.94749721       5.22982823         0.00000000       0.00000000       0.00000000          1
H         6.53164591       2.28677598       0.27525238         0.00000000       0.00000000       0.00000000          1
H         1.07013898      11.15611566       3.67795329         0.00000000       0.00000000       0.00000000          1
H        13.20726837       4.39548799       8.19894739         0.00000000       0.00000000       0.00000000          1
6
pbc=[F, F, F] list_num_par=6 frozen=false iter=309 energy=-0.10897325 Lattice="15.00000000 0.00000000 0.00000000 0.00000000 15.00000000 0.00000000 0.00000000 0.00000000 15.00000000" energy_frozen_part=0.00000000 Properties=species:S:1:pos:R:3:velocities:R:3:Z:I:1
H         1.30487507       5.89061036       9.95265011         0.00000000       0.00000000       0.00000000          1
H         0.92002950      11.41696098       9.05912782         0.00000000       0.00000000       0.00000000          1