6
pbc=[F, F, F] list_num_par=6 frozen=false iter=20000 energy=-1.26974174 Lattice="15.00000000 0.00000000 0.00000000 0.00000000 15.00000000 0.00000000 0.00000000 0.00000000 15.00000000" energy_frozen_part=0.00000000 Properties=species:S:1:pos:R:3:velocities:R:3:Z:I:1
H         9.34029861       4.59231958       1.03338055         0.00000000       0.00000000       0.00000000          1
H        10.22305464       2.27654618       2.32264620         0.00000000       0.00000000       0.00000000          1
H         6.70116654       3.94993485       1.68652109         0.00000000       0.00000000       0.00000000          1
H         7.58391805       1.63416690       2.97578992         0.00000000       0.00000000       0.00000000          1
H         8.28890230       2.10606305       0.31409905         0.00000000       0.00000000       0.00000000          1
H         8.63532507       4.12041687       3.69506784         0.00000000       0.00000000       0.00000000          1
6
pbc=[F, F, F] list_num_par=6 frozen=false iter=20000 energy=-1.26974174 Lattice="15.00000000 0.00000000 0.00000000 0.00000000 15.00000000 0.00000000 0.00000000 0.00000000 15.00000000" energy_frozen_part=0.00000000 Properties=species:S:1:pos:R:3:velocities:R:3:Z:I:1
H         9.34009997       4.59240827       1.03331805         0.00000000       0.00000000       0.00000000          1
H        10.22309952       2.27659015       2.32234106         0.00000000       0.00000000       0.00000000          1
H         6.70106222       3.94984556       1.68668387         0.00000000       0.00000000       0.00000000          1
H         7.58406584       1.63402108       2.97570055         0.00000000       0.00000000       0.00000000          1
H         8.28875114       2.10614882       0.31397069         0.00000000       0.00000000       0.00000000          1
H         8.63540636       4.12028945       3.69504765         0.00000000       0.00000000       0.00000000          1
6
pbc=[F, F, F] list_num_par=6 frozen=false iter=20000 energy=-1.26974174 Lattice="15.00000000 0.00000000 0.00000000 0.00000000 15.00000000 0.00000000 0.00000000 0.00000000 15.00000000" energy_frozen_part=0.00000000 Properties=species:S:1:pos:R:3:velocities:R:3:Z:I:1
H         9.34011861       4.59251874       1.03344181         0.00000000       0.00000000       0.00000000          1
H        10.22313042       2.27670196       2.32244818         0.00000000       0.00000000       0.00000000          1
H         6.70107480       3.94987897       1.68668837         0.00000000       0.00000000       0.00000000          1
H         7.58408003       1.63405684       2.97570034         0.00000000       0.00000000       0.00000000          1
H         8.28885911       2.10624649       0.31400827         0.00000000       0.00000000       0.00000000          1
H         8.63534052       4.12032374       3.69512950         0.00000000       0.00000000       0.00000000          1
6
pbc=[F, F, F] list_num_par=6 frozen=false iter=20000 energy=-1.26974174 Lattice="15.00000000 0.00000000 0.00000000 0.00000000 15.00000000 0.00000000 0.00000000 0.00000000 15.00000000" energy_frozen_part=0.00000000 Properties=species:S:1:pos:R:3:velocities:R:3:Z:I:1
H         9.34008337       4.59244119       1.03329808         0.00000000       0.00000000       0.00000000          1
H        10.22308357       2.27662923       2.32234198         0.00000000       0.00000000       0.00000000          1
H         6.70104319       3.94987118       1.68665153         0.00000000       0.00000000       0.00000000          1
H         7.58404639       1.63406560       2.97568885         0.00000000       0.00000000       0.00000000          1
H         8.28874874       2.10617953       0.31396177         0.00000000       0.00000000       0.00000000          1
H         8.63537904       4.12032946       3.69502758         0.00000000       0.00000000       0.00000000          1
6
pbc=[F, F, F] list_num_par=6 frozen=false iter=20000 energy=-1.26974174 Lattice="15.00000000 0.00000000 0.00000000 0.00000000 15.00000000 0.00000000 0.00000000 0.00000000 15.00000000" energy_frozen_part=0.00000000 Properties=species:S:1:pos:R:3:velocities:R:3:Z:I:1
H         9.34024087       4.59242565       1.03333185         0.00000000       0.00000000       0.00000000          1
H        10.22310469       2.27657244       2.32239917         0.00000000       0.00000000       0.00000000          1
H         6.70115574       3.94994245       1.68658258         0.00000000       0.00000000       0.00000000          1
H         7.58401898       1.63409431       2.97565140         0.00000000       0.00000000       0.00000000          1
H         8.28884585       2.10619497       0.31395408         0.00000000       0.00000000       0.00000000          1
H         8.63541887       4.12032665       3.69502942         0.00000000       0.00000000       0.00000000          1
6
pbc=[F, F, F] list_num_par=6 frozen=false iter=20000 energy=-1.26974174 Lattice="15.00000000 0.00000000 0.00000000 0.00000000 15.00000000 0.00000000 0.00000000 0.00000000 15.00000000" energy_frozen_part=0.00000000 Properties=species:S:1:pos:R:3:velocities:R:3:Z:I:1
H         9.34008346       4.59240942       1.03332461         0.00000000       0.00000000       0.00000000          1
H        10.22311654       2.27660289       2.32235392         0.00000000       0.00000000       0.00000000          1
H         6.70105349       3.94979254       1.68667075         0.00000000       0.00000000       0.00000000          1
H         7.58408674       1.63398655       2.97568894         0.00000000       0.00000000       0.00000000          1
H         8.28879522       2.10613313       0.31396804         0.00000000       0.00000000       0.00000000          1
H         8.63538224       4.12026417       3.69504504         0.00000000       0.00000000       0.00000000          1
6
pbc=[F, F, F] list_num_par=6 frozen=false iter=20000 energy=-1.26974174 Lattice="15.00000000 0.00000000 0.00000000 0.00000000 15.00000000 0.00000000 0.00000000 0.00000000 15.00000000" energy_frozen_part=0.00000000 Properties=species:S:1:pos:R:3:velocities:R:3:Z:I:1
H         9.34010773       4.59242487       1.03356710         0.00000000       0.00000000       0.00000000          1
H        10.22306386       2.27650143       2.32242340         0.00000000       0.00000000       0.00000000          1
H         6.70110711       3.95012151       1.68731095         0.00000000       0.00000000       0.00000000          1
H         7.58405949       1.63420039       2.97618265         0.00000000       0.00000000       0.00000000          1
H         8.28839378       2.10627395       0.31435146         0.00000000       0.00000000       0.00000000          1
H         8.63577637       4.12034171       3.69539301         0.00000000       0.00000000       0.00000000          1
6
pbc=[F, F, F] list_num_par=6 frozen=false iter=20000 energy=-1.26974174 Lattice="15.00000000 0.00000000 0.00000000 0.00000000 15.00000000 0.00000000 0.00000000 0.00000000 15.00000000" energy_frozen_part=0.00000000 Properties=species:S:1:pos:R:3:velocities:R:3:Z:I:1
H         9.34008003       4.59242767       1.03330792         0.00000000       0.00000000       0.00000000          1
H        10.22313158       2.27662146       2.32232053         0.00000000       0.00000000       0.00000000          1
H         6.70105388       3.94980440       1.68666843         0.00000000       0.00000000       0.00000000          1
H         7.58410375       1.63399795       2.97567702         0.00000000       0.00000000       0.00000000          1
H         8.28877888       2.10614856       0.31395291         0.00000000       0.00000000       0.00000000          1
H         8.63540637       4.12027584       3.69503670         0.00000000       0.00000000       0.00000000          1
6
pbc=[F, F, F] list_num_par=6 frozen=false iter=20000 energy=-1.26974174 Lattice="15.00000000 0.00000000 0.00000000 0.00000000 15.00000000 0.00000000 0.00000000 0.00000000 15.00000000" energy_frozen_part=0.00000000 Properties=species:S:1:pos:R:3:velocities:R:3:Z:I:1
H         9.34028378       4.59235034       1.03340478         0.00000000       0.00000000       0.00000000          1
H        10.22303795       2.27648807       2.32252241         0.00000000       0.00000000       0.00000000          1
H         6.70115512       3.94997236       1.68657948         0.00000000       0.00000000       0.00000000          1
H         7.58390804       1.63410082       2.97569223         0.00000000       0.00000000       0.00000000          1
H         8.28882054       2.10615309       0.31401503         0.00000000       0.00000000       0.00000000          1
H         8.63536142       4.12030211       3.69508793         0.00000000       0.00000000       0.00000000          1
6
pbc=[F, F, F] list_num_par=6 frozen=false iter=20000 energy=-1.26974174 Lattice="15.00000000 0.00000000 0.00000000 0.00000000 15.00000000 0.00000000 0.00000000 0.00000000 15.00000000" energy_frozen_part=0.00000000 Properties=species:S:1:pos:R:3:velocities:R:3:Z:I:1
H         9.34008896       4.59242091       1.03332295         0.00000000       0.00000000       0.00000000          1
H        10.22312562       2.27660838       2.32232783         0.00000000       0.00000000       0.00000000          1
H         6.70106249       3.94979421       1.68666779         0.00000000       0.00000000       0.00000000          1
H         7.58410125       1.63398683       2.97568197         0.00000000       0.00000000       0.00000000          1
H         8.28879203       2.10614513       0.31394914         0.00000000       0.00000000       0.00000000          1
H         8.63539617       4.12026171       3.69504563         0.00000000       0.00000000       0.00000000          1
6
pbc=[F, F, F] list_num_par=6 frozen=false iter=20000 energy=-1.26974174 Lattice="15.00000000 0.00000000 0.00000000 0.00000000 15.00000000 0.00000000 0.00000000 0.00000000 15.00000000" energy_frozen_part=0.00000000 Properties=species:S:1:pos:R:3:velocities:R:3:Z:I:1
H         9.34004541       4.59241742       1.03331663         0.00000000       0.00000000       0.00000000          1
H        10.22305873       2.27661745       2.32235490         0.00000000       0.00000000       0.00000000          1
H         6.70100892       3.94983384       1.68665427         0.00000000       0.00000000       0.00000000          1
H         7.58402015       1.63402621       2.97568499         0.00000000       0.00000000       0.00000000          1
H         8.28873216       2.10614929       0.31396755         0.00000000       0.00000000       0.00000000          1
H         8.63533492       4.12029447       3.69504439         0.00000000       0.00000000       0.00000000          1
6
pbc=[F, F, F] list_num_par=6 frozen=false iter=20000 energy=-1.26974174 Lattice="15.00000000 0.00000000 0.00000000 0.00000000 15.00000000 0.00000000 0.00000000 0.00000000 15.00000000" energy_frozen_part=0.00000000 Properties=species:S:1:pos:R:3:velocities:R:3:Z:I:1
H         3.12017234       3.03419215       4.97429131         0.00000000       0.00000000       0.00000000          1
H         5.78238204       2.27115957       4.60725403         0.00000000       0.00000000       0.00000000          1
H         6.20299478       2.41193068       7.36543827         0.00000000       0.00000000       0.00000000          1
H         5.18121646       4.62072209       5.99376489         0.00000000       0.00000000       0.00000000          1
H         3.54079108       3.17496653       7.73246739         0.00000000       0.00000000       0.00000000          1
H         4.14196230       0.82539878       6.34594924         0.00000000       0.00000000       0.00000000          1
6
pbc=[F, F, F] list_num_par=6 frozen=false iter=20000 energy=-1.26974174 Lattice="15.00000000 0.00000000 0.00000000 0.00000000 15.00000000 0.00000000 0.00000000 0.00000000 15.00000000" energy_frozen_part=0.00000000 Properties=species:S:1:pos:R:3:velocities:R:3:Z:I:1
H         3.12021938       3.03418593       4.97425867         0.00000000       0.00000000       0.00000000          1
H         5.78242753       2.27113817       4.60728784         0.00000000       0.00000000       0.00000000          1
H         6.20299046       2.41191297       7.36547408         0.00000000       0.00000000       0.00000000          1
H         5.18124065       4.62070854       5.99378798         0.00000000       0.00000000       0.00000000          1
H         3.54077519       3.17496516       7.73244938         0.00000000       0.00000000       0.00000000          1
H         4.14196765       0.82539224       6.34596052         0.00000000       0.00000000       0.00000000          1
6
pbc=[F, F, F] list_num_par=6 frozen=false iter=20000 energy=-1.26974174 Lattice="15.00000000 0.00000000 0.00000000 0.00000000 15.00000000 0.00000000 0.00000000 0.00000000 15.00000000" energy_frozen_part=0.00000000 Properties=species:S:1:pos:R:3:velocities:R:3:Z:I:1
H         9.34010529       4.59240728       1.03331517         0.00000000       0.00000000       0.00000000          1
H        10.22310545       2.27658880       2.32233841         0.00000000       0.00000000       0.00000000          1
H         6.70107705       3.94984452       1.68669185         0.00000000       0.00000000       0.00000000          1
H         7.58407886       1.63402613       2.97571058         0.00000000       0.00000000       0.00000000          1
H         8.28875316       2.10614561       0.31397768         0.00000000       0.00000000       0.00000000          1
H         8.63543080       4.12028377       3.69505459         0.00000000       0.00000000       0.00000000          1
6
pbc=[F, F, F] list_num_par=6 frozen=false iter=20000 energy=-1.26974174 Lattice="15.00000000 0.00000000 0.00000000 0.00000000 15.00000000 0.00000000 0.00000000 0.00000000 15.00000000" energy_frozen_part=0.00000000 Properties=species:S:1:pos:R:3:velocities:R:3:Z:I:1
H         9.34008333       4.59240764       1.03332745         0.00000000       0.00000000       0.00000000          1
H        10.22311765       2.27660833       2.32235182         0.00000000       0.00000000       0.00000000          1
H         6.70105238       3.94978821       1.68666015         0.00000000       0.00000000       0.00000000          1
H         7.58409171       1.63398202       2.97568236         0.00000000       0.00000000       0.00000000          1
H         8.28879949       2.10613294       0.31396318         0.00000000       0.00000000       0.00000000          1
H         8.63537851       4.12025952       3.69504851         0.00000000       0.00000000       0.00000000          1
6
pbc=[F, F, F] list_num_par=6 frozen=false iter=20000 energy=-1.26974174 Lattice="15.00000000 0.00000000 0.00000000 0.00000000 15.00000000 0.00000000 0.00000000 0.00000000 15.00000000" energy_frozen_part=0.00000000 Properties=species:S:1:pos:R:3:velocities:R:3:Z:I:1
H         3.12021061       3.03420493       4.97428627         0.00000000       0.00000000       0.00000000          1
H         5.78241867       2.27114163       4.60729526         0.00000000       0.00000000       0.00000000          1
H         6.20298580       2.41188315       7.36548275         0.00000000       0.00000000       0.00000000          1
H         5.18124627       4.62069790       5.99381570         0.00000000       0.00000000       0.00000000          1
H         3.54077525       3.17493985       7.73246831         0.00000000       0.00000000       0.00000000          1
H         4.14195087       0.82538245       6.34594360         0.00000000       0.00000000       0.00000000          1
6
pbc=[F, F, F] list_num_par=6 frozen=false iter=20000 energy=-1.26974174 Lattice="15.00000000 0.00000000 0.00000000 0.00000000 15.00000000 0.00000000 0.00000000 0.00000000 15.00000000" energy_frozen_part=0.00000000 Properties=species:S:1:pos:R:3:velocities:R:3:Z:I:1
H         9.34026380       4.59236034       1.03340917         0.00000000       0.00000000       0.00000000          1
H        10.22302539       2.27651088       2.32252877         0.00000000       0.00000000       0.00000000          1
H         6.70114158       3.94996116       1.68657770         0.00000000       0.00000000       0.00000000          1
H         7.58390326       1.63410370       2.97570024         0.00000000       0.00000000       0.00000000          1
H         8.28881883       2.10615450       0.31401559         0.00000000       0.00000000       0.00000000          1
H         8.63534477       4.12030773       3.69509285         0.00000000       0.00000000       0.00000000          1
6
pbc=[F, F, F] list_num_par=6 frozen=false iter=20000 energy=-1.26974174 Lattice="15.00000000 0.00000000 0.00000000 0.00000000 15.00000000 0.00000000 0.00000000 0.00000000 15.00000000" energy_frozen_part=0.00000000 Properties=species:S:1:pos:R:3:velocities:R:3:Z:I:1
H         9.34001600       4.59248644       1.03336152         0.00000000       0.00000000       0.00000000          1
H        10.22312001       2.27671169       2.32240077         0.00000000       0.00000000       0.00000000          1
H         6.70101957       3.94983630       1.68676797         0.00000000       0.00000000       0.00000000          1
H         7.58411359       1.63405657       2.97580304         0.00000000       0.00000000       0.00000000          1
H         8.28874762       2.10618112       0.31406080         0.00000000       0.00000000       0.00000000          1
H         8.63538579       4.12036327       3.69510898         0.00000000       0.00000000       0.00000000          1
6
pbc=[F, F, F] list_num_par=6 frozen=false iter=20000 energy=-1.26974174 Lattice="15.00000000 0.00000000 0.00000000 0.00000000 15.00000000 0.00000000 0.00000000 0.00000000 15.00000000" energy_frozen_part=0.00000000 Properties=species:S:1:pos:R:3:velocities:R:3:Z:I:1
H         3.12016765       3.03420853       4.97429756         0.00000000       0.00000000       0.00000000          1
H         5.78237706       2.27117316       4.60724877         0.00000000       0.00000000       0.00000000          1
H         6.20299381       2.41192894       7.36542584         0.00000000       0.00000000       0.00000000          1
H         5.18120631       4.62073465       5.99376623         0.00000000       0.00000000       0.00000000          1
H         3.54078981       3.17496764       7.73247303         0.00000000       0.00000000       0.00000000          1
H         4.14195680       0.82540707       6.34594666         0.00000000       0.00000000       0.00000000          1
6
pbc=[F, F, F] list_num_par=6 frozen=false iter=20000 energy=-1.26974174 Lattice="15.00000000 0.00000000 0.00000000 0.00000000 15.00000000 0.00000000 0.00000000 0.00000000 15.00000000" energy_frozen_part=0.00000000 Properties=species:S:1:pos:R:3:velocities:R:3:Z:I:1
H         9.34005142       4.59250070       1.03336343         0.00000000       0.00000000       0.00000000          1
H        10.22315821       2.27672914       2.32238898         0.00000000       0.00000000       0.00000000          1
H         6.70104972       3.94982760       1.68675010         0.00000000       0.00000000       0.00000000          1
H         7.58415987       1.63405133       2.97578500         0.00000000       0.00000000       0.00000000          1
H         8.28879929       2.10618571       0.31404574         0.00000000       0.00000000       0.00000000          1
H         8.63541060       4.12036655       3.69510297         0.00000000       0.00000000       0.00000000          1
6
pbc=[F, F, F] list_num_par=6 frozen=false iter=20000 energy=-1.26974174 Lattice="15.00000000 0.00000000 0.00000000 0.00000000 15.00000000 0.00000000 0.00000000 0.00000000 15.00000000" energy_frozen_part=0.00000000 Properties=species:S:1:pos:R:3:velocities:R:3:Z:I:1
H         9.33977940       4.59045371       1.03120366         0.00000000       0.00000000       0.00000000          1
H        10.22362276       2.27551667       2.32122317         0.00000000       0.00000000       0.00000000          1
H         6.70121368       3.94857549       1.68715034         0.00000000       0.00000000       0.00000000          1
H         7.58506320       1.63364458       2.97717293         0.00000000       0.00000000       0.00000000          1
H         8.28765212       2.10374483       0.31453314         0.00000000       0.00000000       0.00000000          1
H         8.63717773       4.12034932       3.69384352         0.00000000       0.00000000       0.00000000          1
6
pbc=[F, F, F] list_num_par=6 frozen=false iter=20000 energy=-1.26974174 Lattice="15.00000000 0.00000000 0.00000000 0.00000000 15.00000000 0.00000000 0.00000000 0.00000000 15.00000000" energy_frozen_part=0.00000000 Properties=species:S:1:pos:R:3:velocities:R:3:Z:I:1
H         3.11978857       3.03478384       4.97470305         0.00000000       0.00000000       0.00000000          1
H         5.78152627       2.27088971       4.60608135         0.00000000       0.00000000       0.00000000          1
H         6.20349907       2.41033809       7.36412248         0.00000000       0.00000000       0.00000000          1
H         5.18190863       4.62009639       5.99387405         0.00000000       0.00000000       0.00000000          1
H         3.54175616       3.17422740       7.73273942         0.00000000       0.00000000       0.00000000          1
H         4.14138509       0.82502093       6.34494449         0.00000000       0.00000000       0.00000000          1
6
pbc=[F, F, F] list_num_par=6 frozen=false iter=20000 energy=-1.26974174 Lattice="15.00000000 0.00000000 0.00000000 0.00000000 15.00000000 0.00000000 0.00000000 0.00000000 15.00000000" energy_frozen_part=0.00000000 Properties=species:S:1:pos:R:3:velocities:R:3:Z:I:1
H         9.34031062       4.59242034       1.03341061         0.00000000       0.00000000       0.00000000          1
H        10.22312398       2.27652441       2.32243133         0.00000000       0.00000000       0.00000000          1
H         6.70121314       3.94999577       1.68664584         0.00000000       0.00000000       0.00000000          1
H         7.58401720       1.63410450       2.97567661         0.00000000       0.00000000       0.00000000          1
H         8.28884852       2.10622448       0.31398588         0.00000000       0.00000000       0.00000000          1
H         8.63548094       4.12028880       3.69510016         0.00000000       0.00000000       0.00000000          1
6
pbc=[F, F, F] list_num_par=6 frozen=false iter=20000 energy=-1.26974174 Lattice="15.00000000 0.00000000 0.00000000 0.00000000 15.00000000 0.00000000 0.00000000 0.00000000 15.00000000" energy_frozen_part=0.00000000 Properties=species:S:1:pos:R:3:velocities:R:3:Z:I:1
H         9.34011800       4.59240995       1.03357058         0.00000000       0.00000000       0.00000000          1
H        10.22305374       2.27648496       2.32244401         0.00000000       0.00000000       0.00000000          1
H         6.70111225       3.95012480       1.68732651         0.00000000       0.00000000       0.00000000          1
H         7.58404853       1.63419845       2.97619320         0.00000000       0.00000000       0.00000000          1
H         8.28838359       2.10626867       0.31436041         0.00000000       0.00000000       0.00000000          1
H         8.63578065       4.12033950       3.69540189         0.00000000       0.00000000       0.00000000          1
6
pbc=[F, F, F] list_num_par=6 frozen=false iter=20000 energy=-1.26974174 Lattice="15.00000000 0.00000000 0.00000000 0.00000000 15.00000000 0.00000000 0.00000000 0.00000000 15.00000000" energy_frozen_part=0.00000000 Properties=species:S:1:pos:R:3:velocities:R:3:Z:I:1
H         3.12022892       3.03411641       4.97426588         0.00000000       0.00000000       0.00000000          1
H         5.78246298       2.27113970       4.60727671         0.00000000       0.00000000       0.00000000          1
H         6.20305131       2.41202649       7.36545374         0.00000000       0.00000000       0.00000000          1
H         5.18121973       4.62074089       5.99370314         0.00000000       0.00000000       0.00000000          1
H         3.54081572       3.17500108       7.73243963         0.00000000       0.00000000       0.00000000          1
H         4.14206855       0.82540461       6.34602155         0.00000000       0.00000000       0.00000000          1
6
pbc=[F, F, F] list_num_par=6 frozen=false iter=20000 energy=-1.26974174 Lattice="15.00000000 0.00000000 0.00000000 0.00000000 15.00000000 0.00000000 0.00000000 0.00000000 15.00000000" energy_frozen_part=0.00000000 Properties=species:S:1:pos:R:3:velocities:R:3:Z:I:1
H         3.12021146       3.03420077       4.97427570         0.00000000       0.00000000       0.00000000          1
H         5.78241410       2.27112808       4.60729391         0.00000000       0.00000000       0.00000000          1
H         6.20298375       2.41189096       7.36548375         0.00000000       0.00000000       0.00000000          1
H         5.18125328       4.62069790       5.99380180         0.00000000       0.00000000       0.00000000          1
H         3.54077293       3.17495911       7.73246547         0.00000000       0.00000000       0.00000000          1
H         4.14194155       0.82538638       6.34595911         0.00000000       0.00000000       0.00000000          1
6
pbc=[F, F, F] list_num_par=6 frozen=false iter=20000 energy=-1.26974174 Lattice="15.00000000 0.00000000 0.00000000 0.00000000 15.00000000 0.00000000 0.00000000 0.00000000 15.00000000" energy_frozen_part=0.00000000 Properties=species:S:1:pos:R:3:velocities:R:3:Z:I:1
H         9.34009939       4.59248043       1.03344945         0.00000000       0.00000000       0.00000000          1
H        10.22310753       2.27666908       2.32248620         0.00000000       0.00000000       0.00000000          1
H         6.70105158       3.94983507       1.68668927         0.00000000       0.00000000       0.00000000          1
H         7.58405956       1.63403023       2.97572370         0.00000000       0.00000000       0.00000000          1
H         8.28884564       2.10620098       0.31402812         0.00000000       0.00000000       0.00000000          1
H         8.63531178       4.12031164       3.69514306         0.00000000       0.00000000       0.00000000          1
6
pbc=[F, F, F] list_num_par=6 frozen=false iter=20000 energy=-1.26974174 Lattice="15.00000000 0.00000000 0.00000000 0.00000000 15.00000000 0.00000000 0.00000000 0.00000000 15.00000000" energy_frozen_part=0.00000000 Properties=species:S:1:pos:R:3:velocities:R:3:Z:I:1
H         9.34030052       4.59232885       1.03337693         0.00000000       0.00000000       0.00000000          1
H        10.22305499       2.27654705       2.32264178         0.00000000       0.00000000       0.00000000          1
H         6.70116972       3.94993244       1.68652676         0.00000000       0.00000000       0.00000000          1
H         7.58392880       1.63415802       2.97578809         0.00000000       0.00000000       0.00000000          1
H         8.28889837       2.10606870       0.31409526         0.00000000       0.00000000       0.00000000          1
H         8.63532201       4.12041661       3.69506975         0.00000000       0.00000000       0.00000000          1
6
pbc=[F, F, F] list_num_par=6 frozen=false iter=20000 energy=-1.26974174 Lattice="15.00000000 0.00000000 0.00000000 0.00000000 15.00000000 0.00000000 0.00000000 0.00000000 15.00000000" energy_frozen_part=0.00000000 Properties=species:S:1:pos:R:3:velocities:R:3:Z:I:1
H         9.34007235       4.59245007       1.03331944         0.00000000       0.00000000       0.00000000          1
H        10.22307348       2.27664510       2.32235955         0.00000000       0.00000000       0.00000000          1
H         6.70104042       3.94987243       1.68665887         0.00000000       0.00000000       0.00000000          1
H         7.58403295       1.63406021       2.97570214         0.00000000       0.00000000       0.00000000          1
H         8.28875142       2.10617928       0.31397522         0.00000000       0.00000000       0.00000000          1
H         8.63536267       4.12033385       3.69504413         0.00000000       0.00000000       0.00000000          1
6
pbc=[F, F, F] list_num_par=6 frozen=false iter=20000 energy=-1.26974174 Lattice="15.00000000 0.00000000 0.00000000 0.00000000 15.00000000 0.00000000 0.00000000 0.00000000 15.00000000" energy_frozen_part=0.00000000 Properties=species:S:1:pos:R:3:velocities:R:3:Z:I:1
H         3.11980176       3.03477299       4.97468865         0.00000000       0.00000000       0.00000000          1
H         5.78156410       2.27091278       4.60610166         0.00000000       0.00000000       0.00000000          1
H         6.20350097       2.41035597       7.36414532         0.00000000       0.00000000       0.00000000          1
H         5.18189698       4.62011134       5.99388930         0.00000000       0.00000000       0.00000000          1
H         3.54174864       3.17422487       7.73273795         0.00000000       0.00000000       0.00000000          1
H         4.14140692       0.82502479       6.34494391         0.00000000       0.00000000       0.00000000          1
6
pbc=[F, F, F] list_num_par=6 frozen=false iter=20000 energy=-1.26974174 Lattice="15.00000000 0.00000000 0.00000000 0.00000000 15.00000000 0.00000000 0.00000000 0.00000000 15.00000000" energy_frozen_part=0.00000000 Properties=species:S:1:pos:R:3:velocities:R:3:Z:I:1
H         9.34004224       4.59250271       1.03336095         0.00000000       0.00000000       0.00000000          1
H        10.22315457       2.27673052       2.32239522         0.00000000       0.00000000       0.00000000          1