6
pbc=[F, F, F] list_num_par=6 energy=48.16200302 iter=9 frozen=false Lattice="15.00000000 0.00000000 0.00000000 0.00000000 15.00000000 0.00000000 0.00000000 0.00000000 15.00000000" energy_frozen_part=0.00000000 Properties=species:S:1:pos:R:3:velocities:R:3:Z:I:1
H         5.04752321      13.55938807       3.62442234         0.00000000       0.00000000       0.00000000          1
H         9.26900060       2.57036043       3.18972127         0.00000000       0.00000000       0.00000000          1
H        13.72311371       0.72213102       3.06107192         0.00000000       0.00000000       0.00000000          1
H         5.08167208      13.56031239      13.52990583         0.00000000       0.00000000       0.00000000          1
H         9.29284550       1.65428800       1.80039809         0.00000000       0.00000000       0.00000000          1
H         6.57011740       6.58935003       4.26401297         0.00000000       0.00000000       0.00000000          1
6
pbc=[F, F, F] list_num_par=6 energy=0.19486130 iter=19 frozen=false Lattice="15.00000000 0.00000000 0.00000000 0.00000000 15.00000000 0.00000000 0.00000000 0.00000000 15.00000000" energy_frozen_part=0.00000000 Properties=species:S:1:pos:R:3:velocities:R:3:Z:I:1
H         5.09458799       5.68012852       5.49580023         0.00000000       0.00000000       0.00000000          1
H         1.98067592       7.12212868       7.63405447         0.00000000       0.00000000       0.00000000          1
H         5.73347906       1.20761355      13.17862046         0.00000000       0.00000000       0.00000000          1
H         4.80924930       1.54709287       5.58691637         0.00000000       0.00000000       0.00000000          1
H         6.95478413       2.17896559      11.41079409         0.00000000       0.00000000       0.00000000          1
H         9.62851023      11.51422188       7.57968826         0.00000000       0.00000000       0.00000000          1
6
pbc=[F, F, F] list_num_par=6 energy=-0.00496009 iter=29 frozen=false Lattice="15.00000000 0.00000000 0.00000000 0.00000000 15.00000000 0.00000000 0.00000000 0.00000000 15.00000000" energy_frozen_part=0.00000000 Properties=species:S:1:pos:R:3:velocities:R:3:Z:I:1
H         2.66229397      11.76276611      11.78376464         0.00000000       0.00000000       0.00000000          1
H        14.46538694      10.07903238      14.17151654         0.00000000       0.00000000       0.00000000          1
H         8.04107931      10.96288621      11.39239906         0.00000000       0.00000000       0.00000000          1
H         1.22545250       0.04229132      14.25368570         0.00000000       0.00000000       0.00000000          1
H        13.37109448       5.65836783       1.92841736         0.00000000       0.00000000       0.00000000          1
H         1.12071876      14.34417469       5.35913921         0.00000000       0.00000000       0.00000000          1
6
pbc=[F, F, F] list_num_par=6 energy=-0.00720656 iter=39 frozen=false Lattice="15.00000000 0.00000000 0.00000000 0.00000000 15.00000000 0.00000000 0.00000000 0.00000000 15.00000000" energy_frozen_part=0.00000000 Properties=species:S:1:pos:R:3:velocities:R:3:Z:I:1
H         7.64944377       0.48867854       1.76189485         0.00000000       0.00000000       0.00000000          1
H         6.55693868      10.00305323       6.42502435         0.00000000       0.00000000       0.00000000          1
H        11.75625911       0.89040554       7.95378444         0.00000000       0.00000000       0.00000000          1
H         5.60224372      13.38755062      13.68565893         0.00000000       0.00000000       0.00000000          1
H         5.33380117       1.10235838       9.14664704         0.00000000       0.00000000       0.00000000          1
H        10.18875511      12.27716018      10.55325797         0.00000000       0.00000000       0.00000000          1
6
pbc=[F, F, F] list_num_par=6 energy=-0.00950092 iter=49 frozen=false Lattice="15.00000000 0.00000000 0.00000000 0.00000000 15.00000000 0.00000000 0.00000000 0.00000000 15.00000000" energy_frozen_part=0.00000000 Properties=species:S:1:pos:R:3:velocities:R:3:Z:I:1
H         1.55123647       1.77988226       4.28943469         0.00000000       0.00000000       0.00000000          1
H         8.42989436       7.07007217       7.01518812         0.00000000       0.00000000       0.00000000          1
H         9.94509512      13.10048269      13.72236716         0.00000000       0.00000000       0.00000000          1
H         3.21858495       7.60537687       6.87853946         0.00000000       0.00000000       0.00000000          1
H         5.73842510       0.25511723       8.07892774         0.00000000       0.00000000       0.00000000          1
H        13.74483793       1.32040239       7.38672988         0.00000000       0.00000000       0.00000000          1
6
pbc=[F, F, F] list_num_par=6 energy=-0.01290325 iter=59 frozen=false Lattice="15.00000000 0.00000000 0.00000000 0.00000000 15.00000000 0.00000000 0.00000000 0.00000000 15.00000000" energy_frozen_part=0.00000000 Properties=species:S:1:pos:R:3:velocities:R:3:Z:I:1
H         0.19356981      12.22167027       3.83750971         0.00000000       0.00000000       0.00000000          1
H         7.84313644      10.72297845       7.67808545         0.00000000       0.00000000       0.00000000          1
H        13.28570694       0.61158603       8.36903306         0.00000000       0.00000000       0.00000000          1
H         4.65252796      10.73168437       0.43154036         0.00000000       0.00000000       0.00000000          1
H         3.34427743      14.69189152      10.58107367         0.00000000       0.00000000       0.00000000          1
H        10.79651754      11.02279920      11.35098002         0.00000000       0.00000000       0.00000000          1
6
pbc=[F, F, F] list_num_par=6 energy=-0.01568500 iter=69 frozen=false Lattice="15.00000000 0.00000000 0.00000000 0.00000000 15.00000000 0.00000000 0.00000000 0.00000000 15.00000000" energy_frozen_part=0.00000000 Properties=species:S:1:pos:R:3:velocities:R:3:Z:I:1
H         4.65397491       1.70956282       7.36441980         0.00000000       0.00000000       0.00000000          1
H        13.27714860       6.98647082       8.52620009         0.00000000       0.00000000       0.00000000          1
H        12.95303206       1.28364698       1.23949766         0.00000000       0.00000000       0.00000000          1
H         3.48082983       3.53900225      13.38095269         0.00000000       0.00000000       0.00000000          1
H         3.57280206       9.37022656      12.50628040         0.00000000       0.00000000       0.00000000          1
H        13.56804320       9.50613666       4.85995291         0.00000000       0.00000000       0.00000000          1
6
pbc=[F, F, F] list_num_par=6 energy=-0.02119117 iter=79 frozen=false Lattice="15.00000000 0.00000000 0.00000000 0.00000000 15.00000000 0.00000000 0.00000000 0.00000000 15.00000000" energy_frozen_part=0.00000000 Properties=species:S:1:pos:R:3:velocities:R:3:Z:I:1
H         2.56860915      13.30326586      13.33164453         0.00000000       0.00000000       0.00000000          1
H        12.47041547       7.56878219      14.76539754         0.00000000       0.00000000       0.00000000          1
H         3.77952491       1.34817942       2.60289080         0.00000000       0.00000000       0.00000000          1
H         7.51855891       5.06658820       1.10142555         0.00000000       0.00000000       0.00000000          1
H         2.80974096       9.41426769      11.69571105         0.00000000       0.00000000       0.00000000          1
H        13.77398060      13.19148444      12.16433260         0.00000000       0.00000000       0.00000000          1
6
pbc=[F, F, F] list_num_par=6 energy=-0.02683262 iter=89 frozen=false Lattice="15.00000000 0.00000000 0.00000000 0.00000000 15.00000000 0.00000000 0.00000000 0.00000000 15.00000000" energy_frozen_part=0.00000000 Properties=species:S:1:pos:R:3:velocities:R:3:Z:I:1
H        10.54324562      13.65080871       8.13411972         0.00000000       0.00000000       0.00000000          1
H         3.13982322       4.21794907       9.09809678         0.00000000       0.00000000       0.00000000          1
H        11.32731187       0.13389197       9.36050032         0.00000000       0.00000000       0.00000000          1
H         3.19752453       0.60299794       1.98007444         0.00000000       0.00000000       0.00000000          1
H         7.17129346       2.74338247      11.26373224         0.00000000       0.00000000       0.00000000          1
H         0.45941077       7.59976352       8.79920172         0.00000000       0.00000000       0.00000000          1
6
pbc=[F, F, F] list_num_par=6 energy=-0.03170523 iter=99 frozen=false Lattice="15.00000000 0.00000000 0.00000000 0.00000000 15.00000000 0.00000000 0.00000000 0.00000000 15.00000000" energy_frozen_part=0.00000000 Properties=species:S:1:pos:R:3:velocities:R:3:Z:I:1
H         6.93733843       8.50708620       7.93492837         0.00000000       0.00000000       0.00000000          1
H         6.42758346      13.45805743      12.62335914         0.00000000       0.00000000       0.00000000          1
H        12.84148836       5.88278765       1.62895667         0.00000000       0.00000000       0.00000000          1
H        11.28808773       3.33887846      13.39469691         0.00000000       0.00000000       0.00000000          1
H         3.38553857      14.60286719      10.53587571         0.00000000       0.00000000       0.00000000          1
H         9.05160156      14.40426840       6.54250920         0.00000000       0.00000000       0.00000000          1
6
pbc=[F, F, F] list_num_par=6 energy=-0.03760454 iter=109 frozen=false Lattice="15.00000000 0.00000000 0.00000000 0.00000000 15.00000000 0.00000000 0.00000000 0.00000000 15.00000000" energy_frozen_part=0.00000000 Properties=species:S:1:pos:R:3:velocities:R:3:Z:I:1
H         5.68874397       3.51220394       9.21260972         0.00000000       0.00000000       0.00000000          1
H        10.91031195      11.95274098       5.09613016         0.00000000       0.00000000       0.00000000          1
H        14.96909680       2.00385268       8.44878958         0.00000000       0.00000000       0.00000000          1
H         8.59256014       6.62267091      10.83424878         0.00000000       0.00000000       0.00000000          1
H         5.30631366       2.09058666       1.10647292         0.00000000       0.00000000       0.00000000          1
H         7.87567062       9.44481092       5.28342776         0.00000000       0.00000000       0.00000000          1
6
pbc=[F, F, F] list_num_par=6 energy=-0.04092770 iter=119 frozen=false Lattice="15.00000000 0.00000000 0.00000000 0.00000000 15.00000000 0.00000000 0.00000000 0.00000000 15.00000000" energy_frozen_part=0.00000000 Properties=species:S:1:pos:R:3:velocities:R:3:Z:I:1
H        13.96728023       0.41958488       3.25745817         0.00000000       0.00000000       0.00000000          1
H         7.73235058       7.65293106       7.62335337         0.00000000       0.00000000       0.00000000          1
H         3.30804377      13.89086582       5.52676459         0.00000000       0.00000000       0.00000000          1
H        12.22593707       2.84966147       5.35329572         0.00000000       0.00000000       0.00000000          1
H        14.96755083      14.34888098      12.77460976         0.00000000       0.00000000       0.00000000          1
H         7.27332049       1.74787346       9.34029931         0.00000000       0.00000000       0.00000000          1
6
pbc=[F, F, F] list_num_par=6 energy=-0.04410121 iter=129 frozen=false Lattice="15.00000000 0.00000000 0.00000000 0.00000000 15.00000000 0.00000000 0.00000000 0.00000000 15.00000000" energy_frozen_part=0.00000000 Properties=species:S:1:pos:R:3:velocities:R:3:Z:I:1
H         1.48442068      11.91359189      10.83640236         0.00000000       0.00000000       0.00000000          1
H         1.37419652       6.48544375      14.64608764         0.00000000       0.00000000       0.00000000          1
H        12.24119256      14.53342176       1.68719608         0.00000000       0.00000000       0.00000000          1
H         6.51164895       7.91603393      11.17992202         0.00000000       0.00000000       0.00000000          1
H         0.69760105       3.34396261       1.71280025         0.00000000       0.00000000       0.00000000          1
H         8.35952600       4.98770912      12.14963758         0.00000000       0.00000000       0.00000000          1
6
pbc=[F, F, F] list_num_par=6 energy=-0.04936855 iter=139 frozen=false Lattice="15.00000000 0.00000000 0.00000000 0.00000000 15.00000000 0.00000000 0.00000000 0.00000000 15.00000000" energy_frozen_part=0.00000000 Properties=species:S:1:pos:R:3:velocities:R:3:Z:I:1
H         4.54741532       3.60114075       9.61935029         0.00000000       0.00000000       0.00000000          1
H        10.42726693      12.22936691       5.20858215         0.00000000       0.00000000       0.00000000          1
H        14.56779190       2.63232386       9.60459688         0.00000000       0.00000000       0.00000000          1
H         8.61473637       6.02204795       9.20276400         0.00000000       0.00000000       0.00000000          1
H         4.93827422       2.59049256       3.33647725         0.00000000       0.00000000       0.00000000          1
H         7.70117350       9.74545545       5.85733606         0.00000000       0.00000000       0.00000000          1
6
pbc=[F, F, F] list_num_par=6 energy=-0.05507787 iter=149 frozen=false Lattice="15.00000000 0.00000000 0.00000000 0.00000000 15.00000000 0.00000000 0.00000000 0.00000000 15.00000000" energy_frozen_part=0.00000000 Properties=species:S:1:pos:R:3:velocities:R:3:Z:I:1
H         3.48408970      14.34079872      11.31278319         0.00000000       0.00000000       0.00000000          1
H        12.79971083      11.72424139      13.84087268         0.00000000       0.00000000       0.00000000          1
H         0.77517761       1.40996640       3.88544413         0.00000000       0.00000000       0.00000000          1
H         5.60281571      12.00932507      14.53660873         0.00000000       0.00000000       0.00000000          1
H         8.76823800       8.09451482       7.17147575         0.00000000       0.00000000       0.00000000          1
H         6.93845976      11.04103596       6.35629340         0.00000000       0.00000000       0.00000000          1
6
pbc=[F, F, F] list_num_par=6 energy=-0.06272919 iter=159 frozen=false Lattice="15.00000000 0.00000000 0.00000000 0.00000000 15.00000000 0.00000000 0.00000000 0.00000000 15.00000000" energy_frozen_part=0.00000000 Properties=species:S:1:pos:R:3:velocities:R:3:Z:I:1
H        12.56051415       3.85470147       1.63507526         0.00000000       0.00000000       0.00000000          1
H        14.39528312       8.80047569       6.84621622         0.00000000       0.00000000       0.00000000          1
H         5.03435171       7.25179607      13.55707124         0.00000000       0.00000000       0.00000000          1
H         8.73616099       6.92376646       9.53753344         0.00000000       0.00000000       0.00000000          1
H         7.93683518      11.88233682       4.89317328         0.00000000       0.00000000       0.00000000          1
H         2.56596997       6.48026423      11.38620890         0.00000000       0.00000000       0.00000000          1
6
pbc=[F, F, F] list_num_par=6 energy=-0.06646123 iter=169 frozen=false Lattice="15.00000000 0.00000000 0.00000000 0.00000000 15.00000000 0.00000000 0.00000000 0.00000000 15.00000000" energy_frozen_part=0.00000000 Properties=species:S:1:pos:R:3:velocities:R:3:Z:I:1
H        12.69433166       9.48928059       3.52080665         0.00000000       0.00000000       0.00000000          1
H        12.25696077       9.78968098       7.57881545         0.00000000       0.00000000       0.00000000          1
H         3.94529209       7.86553107      11.06835127         0.00000000       0.00000000       0.00000000          1
H         8.93819775       6.85755038      11.72698174         0.00000000       0.00000000       0.00000000          1
H         6.46926542       8.92666030       2.10304164         0.00000000       0.00000000       0.00000000          1
H         3.96582078      11.43459158      10.32133898         0.00000000       0.00000000       0.00000000          1
6
pbc=[F, F, F] list_num_par=6 energy=-0.07550107 iter=179 frozen=false Lattice="15.00000000 0.00000000 0.00000000 0.00000000 15.00000000 0.00000000 0.00000000 0.00000000 15.00000000" energy_frozen_part=0.00000000 Properties=species:S:1:pos:R:3:velocities:R:3:Z:I:1
H         2.58774267      14.92651460       5.11519522         0.00000000       0.00000000       0.00000000          1
H         2.07607093      11.76652483       4.87620796         0.00000000       0.00000000       0.00000000          1
H        10.84385538       0.86128777       7.77125617         0.00000000       0.00000000       0.00000000          1
H         1.47105720       2.14240420       9.50026637         0.00000000       0.00000000       0.00000000          1
H         5.10080206       4.23070180       6.25660569         0.00000000       0.00000000       0.00000000          1
H        12.84426297       2.80934387      13.97877481         0.00000000       0.00000000       0.00000000          1
6
pbc=[F, F, F] list_num_par=6 energy=-0.07878126 iter=189 frozen=false Lattice="15.00000000 0.00000000 0.00000000 0.00000000 15.00000000 0.00000000 0.00000000 0.00000000 15.00000000" energy_frozen_part=0.00000000 Properties=species:S:1:pos:R:3:velocities:R:3:Z:I:1
H         4.85271044      12.18978520       9.16652286         0.00000000       0.00000000       0.00000000          1
H        10.92764624       0.82571920      14.50805461         0.00000000       0.00000000       0.00000000          1
H         7.45249134      12.73797754       4.57699863         0.00000000       0.00000000       0.00000000          1
H        12.04731790       9.78497987      13.62627805         0.00000000       0.00000000       0.00000000          1
H         1.78322604      12.32989846       8.38969782         0.00000000       0.00000000       0.00000000          1
H         0.90356209       7.06230268      14.42872321         0.00000000       0.00000000       0.00000000          1
6
pbc=[F, F, F] list_num_par=6 energy=-0.08254741 iter=199 frozen=false Lattice="15.00000000 0.00000000 0.00000000 0.00000000 15.00000000 0.00000000 0.00000000 0.00000000 15.00000000" energy_frozen_part=0.00000000 Properties=species:S:1:pos:R:3:velocities:R:3:Z:I:1
H        10.76783033       3.02154340       2.77450328         0.00000000       0.00000000       0.00000000          1
H         8.48964920       4.94955470      11.95450891         0.00000000       0.00000000       0.00000000          1
H         3.45021411       9.56757108       6.14344214         0.00000000       0.00000000       0.00000000          1
H         9.71263113       6.55163958       9.11328003         0.00000000       0.00000000       0.00000000          1
H        12.81323148       8.66708387      11.01099169         0.00000000       0.00000000       0.00000000          1
H         9.09225141       0.78273616      10.66258813         0.00000000       0.00000000       0.00000000          1
6
pbc=[F, F, F] list_num_par=6 energy=-0.08432520 iter=209 frozen=false Lattice="15.00000000 0.00000000 0.00000000 0.00000000 15.00000000 0.00000000 0.00000000 0.00000000 15.00000000" energy_frozen_part=0.00000000 Properties=species:S:1:pos:R:3:velocities:R:3:Z:I:1
H         2.04754674      10.86025904       4.11722362         0.00000000       0.00000000       0.00000000          1
H         5.42009187       3.57071758       3.53209068         0.00000000       0.00000000       0.00000000          1
H        14.13415379       7.83849089       6.59988000         0.00000000       0.00000000       0.00000000          1
H         2.45307856      14.81293122      14.62611796         0.00000000       0.00000000       0.00000000          1
H         5.05355461      12.64659547      11.27451852         0.00000000       0.00000000       0.00000000          1
H        11.02469487       7.35802855       6.66900807         0.00000000       0.00000000       0.00000000          1
6
pbc=[F, F, F] list_num_par=6 energy=-0.09072903 iter=219 frozen=false Lattice="15.00000000 0.00000000 0.00000000 0.00000000 15.00000000 0.00000000 0.00000000 0.00000000 15.00000000" energy_frozen_part=0.00000000 Properties=species:S:1:pos:R:3:velocities:R:3:Z:I:1
H         3.47555689       7.04943271       6.54133665         0.00000000       0.00000000       0.00000000          1
H         3.53701461       1.02550320       6.23695434         0.00000000       0.00000000       0.00000000          1
H         9.96944054       8.12434997       1.35995458         0.00000000       0.00000000       0.00000000          1
H         3.81937201      14.31050347      12.81873395         0.00000000       0.00000000       0.00000000          1
H         2.73885749      12.15941197      14.62520219         0.00000000       0.00000000       0.00000000          1
H        12.35021327       8.56211891       8.65896146         0.00000000       0.00000000       0.00000000          1
6
pbc=[F, F, F] list_num_par=6 energy=-0.09396865 iter=229 frozen=false Lattice="15.00000000 0.00000000 0.00000000 0.00000000 15.00000000 0.00000000 0.00000000 0.00000000 15.00000000" energy_frozen_part=0.00000000 Properties=species:S:1:pos:R:3:velocities:R:3:Z:I:1
H         3.74205115       1.32682795       2.29313982         0.00000000       0.00000000       0.00000000          1
H         3.70710965       5.61112394       9.27982396         0.00000000       0.00000000       0.00000000          1
H         6.00369236       7.46786224       9.87008696         0.00000000       0.00000000       0.00000000          1
H         9.86638719       7.91169725       3.89190014         0.00000000       0.00000000       0.00000000          1
H        13.16004336      10.62804947       8.53838565         0.00000000       0.00000000       0.00000000          1
H         6.92337182       0.41564737       8.10435766         0.00000000       0.00000000       0.00000000          1
6
pbc=[F, F, F] list_num_par=6 energy=-0.09599584 iter=239 frozen=false Lattice="15.00000000 0.00000000 0.00000000 0.00000000 15.00000000 0.00000000 0.00000000 0.00000000 15.00000000" energy_frozen_part=0.00000000 Properties=species:S:1:pos:R:3:velocities:R:3:Z:I:1
H         7.03547785       5.73764615       0.64921962         0.00000000       0.00000000       0.00000000          1
H         9.39750542       4.69711270       0.38094707         0.00000000       0.00000000       0.00000000          1
H         4.34298586       1.87259392       7.22804217         0.00000000       0.00000000       0.00000000          1
H        13.01439094       2.97728880       0.92459447         0.00000000       0.00000000       0.00000000          1
H         1.43602255       0.18063085       0.64352557         0.00000000       0.00000000       0.00000000          1
H         7.79157168       5.21807612       7.72112649         0.00000000       0.00000000       0.00000000          1
6
pbc=[F, F, F] list_num_par=6 energy=-0.09964348 iter=249 frozen=false Lattice="15.00000000 0.00000000 0.00000000 0.00000000 15.00000000 0.00000000 0.00000000 0.00000000 15.00000000" energy_frozen_part=0.00000000 Properties=species:S:1:pos:R:3:velocities:R:3:Z:I:1
H         4.92959445      14.91010097      13.91814467         0.00000000       0.00000000       0.00000000          1
H        14.07347880       2.89586559       3.77419797         0.00000000       0.00000000       0.00000000          1
H         6.67236077       7.43432944       4.14001565         0.00000000       0.00000000       0.00000000          1
H         3.49903293       7.16798671      11.75727038         0.00000000       0.00000000       0.00000000          1
H         7.88577084       6.93134511       1.72038899         0.00000000       0.00000000       0.00000000          1
H         2.93631448       0.00435747       5.76089518         0.00000000       0.00000000       0.00000000          1
6
pbc=[F, F, F] list_num_par=6 energy=-0.10185503 iter=259 frozen=false Lattice="15.00000000 0.00000000 0.00000000 0.00000000 15.00000000 0.00000000 0.00000000 0.00000000 15.00000000" energy_frozen_part=0.00000000 Properties=species:S:1:pos:R:3:velocities:R:3:Z:I:1
H         6.92297871      12.26896131       9.17030045         0.00000000       0.00000000       0.00000000          1
H        14.11588621       4.47409594      13.23794436         0.00000000       0.00000000       0.00000000          1
H        10.39936230      13.35124669       9.87870229         0.00000000       0.00000000       0.00000000          1
H         6.40474209      10.88214418      12.12637398         0.00000000       0.00000000       0.00000000          1
H        12.24319279      11.28051354       3.47042867         0.00000000       0.00000000       0.00000000          1
H        13.25872467       2.23594867       7.40913945         0.00000000       0.00000000       0.00000000          1
6
pbc=[F, F, F] list_num_par=6 energy=-0.10362799 iter=269 frozen=false Lattice="15.00000000 0.00000000 0.00000000 0.00000000 15.00000000 0.00000000 0.00000000 0.00000000 15.00000000" energy_frozen_part=0.00000000 Properties=species:S:1:pos:R:3:velocities:R:3:Z:I:1
H         6.84088730       1.00817688      13.16794286         0.00000000       0.00000000       0.00000000          1
H         8.24471625      14.56208191       2.10878344         0.00000000       0.00000000       0.00000000          1
H         3.16669171       9.85341249      11.74243374         0.00000000       0.00000000       0.00000000          1
H         4.29667318       6.62794745      14.34119023         0.00000000       0.00000000       0.00000000          1
H        14.09006853      12.27185378      12.67356044         0.00000000       0.00000000       0.00000000          1
H         3.72345648       3.55177605      14.85111666         0.00000000       0.00000000       0.00000000          1
6
pbc=[F, F, F] list_num_par=6 energy=-0.10483416 iter=279 frozen=false Lattice="15.00000000 0.00000000 0.00000000 0.00000000 15.00000000 0.00000000 0.00000000 0.00000000 15.00000000" energy_frozen_part=0.00000000 Properties=species:S:1:pos:R:3:velocities:R:3:Z:I:1
H         1.51668435      13.57059796       6.18185486         0.00000000       0.00000000       0.00000000          1
H         9.47727891       6.08078339       1.92949813         0.00000000       0.00000000       0.00000000          1
H         6.61572035       9.80938533      10.99045564         0.00000000       0.00000000       0.00000000          1
H         6.32018720       9.44704039      14.05745376         0.00000000       0.00000000       0.00000000          1
H         7.62708363      12.60984960       8.23308607         0.00000000       0.00000000       0.00000000          1
H        11.13363956      14.25355198       3.77864180         0.00000000       0.00000000       0.00000000          1
6
pbc=[F, F, F] list_num_par=6 energy=-0.10793088 iter=289 frozen=false Lattice="15.00000000 0.00000000 0.00000000 0.00000000 15.00000000 0.00000000 0.00000000 0.00000000 15.00000000" energy_frozen_part=0.00000000 Properties=species:S:1:pos:R:3:velocities:R:3:Z:I:1
H        14.47276891       5.62807960       6.31214106         0.00000000       0.00000000       0.00000000          1
H         7.61821338       2.80121992       8.44001070         0.00000000       0.00000000       0.00000000          1
H         5.11905213       2.96020571       7.30912146         0.00000000       0.00000000       0.00000000          1
H         7.30784361      11.52839116      13.95063148         0.00000000       0.00000000       0.00000000          1
H        13.15255944       1.52235710       4.26731056         0.00000000       0.00000000       0.00000000          1
H         7.46126938      12.04080268       6.62717599         0.00000000       0.00000000       0.00000000          1
6
pbc=[F, F, F] list_num_par=6 energy=-0.11007574 iter=299 frozen=false Lattice="15.00000000 0.00000000 0.00000000 0.00000000 15.00000000 0.00000000 0.00000000 0.00000000 15.00000000" energy_frozen_part=0.00000000 Properties=species:S:1:pos:R:3:velocities:R:3:Z:I:1
H         2.76527624      11.30222838       8.24682222         0.00000000       0.00000000       0.00000000          1
H         9.36960521       7.07016992       0.06286218         0.00000000       0.00000000       0.00000000          1
H         5.65344065      13.93781046       2.12244844         0.00000000       0.00000000       0.00000000          1
H         4.14935513      12.41172312      10.60316276         0.00000000       0.00000000       0.00000000          1
H         4.95102413       3.59242640       2.82739010         0.00000000       0.00000000       0.00000000          1
H         2.90070836       6.99231374       9.56502842         0.00000000       0.00000000       0.00000000          1
6
pbc=[F, F, F] list_num_par=6 energy=-0.11173548 iter=309 frozen=false Lattice="15.00000000 0.00000000 0.00000000 0.00000000 15.00000000 0.00000000 0.00000000 0.00000000 15.00000000" energy_frozen_part=0.00000000 Properties=species:S:1:pos:R:3:velocities:R:3:Z:I:1
H        14.08338015       7.61676976       4.39977329         0.00000000       0.00000000       0.00000000          1
H         0.12639569      10.44804054      12.46613629         0.00000000       0.00000000       0.00000000          1