6
pbc=[F, F, F] list_num_par=6 energy=-1.26974174 iter=20000 frozen=false Lattice="15.00000000 0.00000000 0.00000000 0.00000000 15.00000000 0.00000000 0.00000000 0.00000000 15.00000000" energy_frozen_part=0.00000000 Properties=species:S:1:pos:R:3:velocities:R:3:Z:I:1
H         3.64412645       6.30506233       7.41923894         0.00000000       0.00000000       0.00000000          1
H         6.39117319       6.34509295       7.92564153         0.00000000       0.00000000       0.00000000          1
H         5.06106743       3.90653426       7.62809603         0.00000000       0.00000000       0.00000000          1
H         5.41591691       7.17979062       5.44442369         0.00000000       0.00000000       0.00000000          1
H         6.83285670       4.78126485       5.65328310         0.00000000       0.00000000       0.00000000          1
H         4.08581796       4.74123432       5.14687549         0.00000000       0.00000000       0.00000000          1
6
pbc=[F, F, F] list_num_par=6 energy=-1.26974174 iter=20000 frozen=false Lattice="15.00000000 0.00000000 0.00000000 0.00000000 15.00000000 0.00000000 0.00000000 0.00000000 15.00000000" energy_frozen_part=0.00000000 Properties=species:S:1:pos:R:3:velocities:R:3:Z:I:1
H         3.64463124       6.31017952       7.40053312         0.00000000       0.00000000       0.00000000          1
H         6.38951014       6.35400163       7.91823026         0.00000000       0.00000000       0.00000000          1
H         5.06376673       3.91357740       7.61656560         0.00000000       0.00000000       0.00000000          1
H         5.42343054       7.18608029       5.43254830         0.00000000       0.00000000       0.00000000          1
H         6.84255923       4.78947567       5.64857969         0.00000000       0.00000000       0.00000000          1
H         4.09767961       4.74565597       5.13088479         0.00000000       0.00000000       0.00000000          1
6
pbc=[F, F, F] list_num_par=6 energy=-1.26974174 iter=20000 frozen=false Lattice="15.00000000 0.00000000 0.00000000 0.00000000 15.00000000 0.00000000 0.00000000 0.00000000 15.00000000" energy_frozen_part=0.00000000 Properties=species:S:1:pos:R:3:velocities:R:3:Z:I:1
H         3.64476183       6.31074348       7.39785643         0.00000000       0.00000000       0.00000000          1
H         6.38931509       6.35620155       7.91716089         0.00000000       0.00000000       0.00000000          1
H         5.06475862       3.91494400       7.61701687         0.00000000       0.00000000       0.00000000          1
H         5.42438044       7.18552580       5.43011610         0.00000000       0.00000000       0.00000000          1
H         6.84436772       4.78971796       5.64926672         0.00000000       0.00000000       0.00000000          1
H         4.09982102       4.74426791       5.12996616         0.00000000       0.00000000       0.00000000          1
6
pbc=[F, F, F] list_num_par=6 energy=-1.26974174 iter=20000 frozen=false Lattice="15.00000000 0.00000000 0.00000000 0.00000000 15.00000000 0.00000000 0.00000000 0.00000000 15.00000000" energy_frozen_part=0.00000000 Properties=species:S:1:pos:R:3:velocities:R:3:Z:I:1
H         3.64477241       6.31073068       7.39786496         0.00000000       0.00000000       0.00000000          1
H         6.38931692       6.35618667       7.91716041         0.00000000       0.00000000       0.00000000          1
H         5.06476601       3.91492245       7.61700369         0.00000000       0.00000000       0.00000000          1
H         5.42438303       7.18551972       5.43011671         0.00000000       0.00000000       0.00000000          1
H         6.84437871       4.78971449       5.64925879         0.00000000       0.00000000       0.00000000          1
H         4.09982621       4.74425735       5.12996515         0.00000000       0.00000000       0.00000000          1
6
pbc=[F, F, F] list_num_par=6 energy=-1.26974174 iter=20000 frozen=false Lattice="15.00000000 0.00000000 0.00000000 0.00000000 15.00000000 0.00000000 0.00000000 0.00000000 15.00000000" energy_frozen_part=0.00000000 Properties=species:S:1:pos:R:3:velocities:R:3:Z:I:1
H         3.64476562       6.31072716       7.39786703         0.00000000       0.00000000       0.00000000          1
H         6.38932244       6.35619900       7.91715688         0.00000000       0.00000000       0.00000000          1
H         5.06477266       3.91493200       7.61701449         0.00000000       0.00000000       0.00000000          1
H         5.42436524       7.18551470       5.43011356         0.00000000       0.00000000       0.00000000          1
H         6.84436785       4.78971665       5.64925981         0.00000000       0.00000000       0.00000000          1
H         4.09982267       4.74424713       5.12996876         0.00000000       0.00000000       0.00000000          1
6
pbc=[F, F, F] list_num_par=6 energy=-1.26974174 iter=20000 frozen=false Lattice="15.00000000 0.00000000 0.00000000 0.00000000 15.00000000 0.00000000 0.00000000 0.00000000 15.00000000" energy_frozen_part=0.00000000 Properties=species:S:1:pos:R:3:velocities:R:3:Z:I:1
H         3.64478303       6.31059912       7.39784586         0.00000000       0.00000000       0.00000000          1
H         6.38933679       6.35621551       7.91711075         0.00000000       0.00000000       0.00000000          1
H         5.06492277       3.91487975       7.61695686         0.00000000       0.00000000       0.00000000          1
H         5.42431550       7.18551436       5.43008621         0.00000000       0.00000000       0.00000000          1
H         6.84444981       4.78979146       5.64919293         0.00000000       0.00000000       0.00000000          1
H         4.09990173       4.74417333       5.12992556         0.00000000       0.00000000       0.00000000          1
6
pbc=[F, F, F] list_num_par=6 energy=-1.26974174 iter=20000 frozen=false Lattice="15.00000000 0.00000000 0.00000000 0.00000000 15.00000000 0.00000000 0.00000000 0.00000000 15.00000000" energy_frozen_part=0.00000000 Properties=species:S:1:pos:R:3:velocities:R:3:Z:I:1
H         3.64429043       6.31010965       7.39984670         0.00000000       0.00000000       0.00000000          1
H         6.38901307       6.35399645       7.91836353         0.00000000       0.00000000       0.00000000          1
H         5.06342405       3.91354272       7.61620061         0.00000000       0.00000000       0.00000000          1
H         5.42364541       7.18614907       5.43242526         0.00000000       0.00000000       0.00000000          1
H         6.84278361       4.78958540       5.64878972         0.00000000       0.00000000       0.00000000          1
H         4.09806429       4.74569250       5.13026428         0.00000000       0.00000000       0.00000000          1
6
pbc=[F, F, F] list_num_par=6 energy=-1.26974174 iter=20000 frozen=false Lattice="15.00000000 0.00000000 0.00000000 0.00000000 15.00000000 0.00000000 0.00000000 0.00000000 15.00000000" energy_frozen_part=0.00000000 Properties=species:S:1:pos:R:3:velocities:R:3:Z:I:1
H         3.64413402       6.30506588       7.41923630         0.00000000       0.00000000       0.00000000          1
H         6.39117591       6.34509821       7.92564259         0.00000000       0.00000000       0.00000000          1
H         5.06107583       3.90653377       7.62810283         0.00000000       0.00000000       0.00000000          1
H         5.41592094       7.17978761       5.44442244         0.00000000       0.00000000       0.00000000          1
H         6.83285892       4.78125704       5.65328075         0.00000000       0.00000000       0.00000000          1
H         4.08581713       4.74122384       5.14688628         0.00000000       0.00000000       0.00000000          1
6
pbc=[F, F, F] list_num_par=6 energy=-1.26974174 iter=20000 frozen=false Lattice="15.00000000 0.00000000 0.00000000 0.00000000 15.00000000 0.00000000 0.00000000 0.00000000 15.00000000" energy_frozen_part=0.00000000 Properties=species:S:1:pos:R:3:velocities:R:3:Z:I:1
H         3.64429430       6.31012560       7.39984289         0.00000000       0.00000000       0.00000000          1
H         6.38902094       6.35399248       7.91835435         0.00000000       0.00000000       0.00000000          1
H         5.06341431       3.91355177       7.61620255         0.00000000       0.00000000       0.00000000          1
H         5.42365035       7.18615333       5.43242173         0.00000000       0.00000000       0.00000000          1
H         6.84277886       4.78957592       5.64877970         0.00000000       0.00000000       0.00000000          1
H         4.09805422       4.74570452       5.13026570         0.00000000       0.00000000       0.00000000          1
6
pbc=[F, F, F] list_num_par=6 energy=-1.26974174 iter=20000 frozen=false Lattice="15.00000000 0.00000000 0.00000000 0.00000000 15.00000000 0.00000000 0.00000000 0.00000000 15.00000000" energy_frozen_part=0.00000000 Properties=species:S:1:pos:R:3:velocities:R:3:Z:I:1
H         3.64422738       6.30507223       7.41909248         0.00000000       0.00000000       0.00000000          1
H         6.39119032       6.34500488       7.92592394         0.00000000       0.00000000       0.00000000          1
H         5.06097398       3.90648440       7.62861387         0.00000000       0.00000000       0.00000000          1
H         5.41639518       7.17931824       5.44439769         0.00000000       0.00000000       0.00000000          1
H         6.83313476       4.78072754       5.65391256         0.00000000       0.00000000       0.00000000          1
H         4.08617188       4.74079467       5.14708634         0.00000000       0.00000000       0.00000000          1
6
pbc=[F, F, F] list_num_par=6 energy=-1.26974174 iter=20000 frozen=false Lattice="15.00000000 0.00000000 0.00000000 0.00000000 15.00000000 0.00000000 0.00000000 0.00000000 15.00000000" energy_frozen_part=0.00000000 Properties=species:S:1:pos:R:3:velocities:R:3:Z:I:1
H         3.64428621       6.31010988       7.39983727         0.00000000       0.00000000       0.00000000          1
H         6.38900641       6.35400633       7.91835942         0.00000000       0.00000000       0.00000000          1
H         5.06342884       3.91354808       7.61620848         0.00000000       0.00000000       0.00000000          1
H         5.42364018       7.18614535       5.43241507         0.00000000       0.00000000       0.00000000          1
H         6.84277975       4.78958136       5.64878893         0.00000000       0.00000000       0.00000000          1
H         4.09806170       4.74568385       5.13027325         0.00000000       0.00000000       0.00000000          1
6
pbc=[F, F, F] list_num_par=6 energy=-1.26974174 iter=20000 frozen=false Lattice="15.00000000 0.00000000 0.00000000 0.00000000 15.00000000 0.00000000 0.00000000 0.00000000 15.00000000" energy_frozen_part=0.00000000 Properties=species:S:1:pos:R:3:velocities:R:3:Z:I:1
H         3.64477122       6.31072089       7.39786179         0.00000000       0.00000000       0.00000000          1
H         6.38932536       6.35619760       7.91715026         0.00000000       0.00000000       0.00000000          1
H         5.06477897       3.91492922       7.61700398         0.00000000       0.00000000       0.00000000          1
H         5.42436645       7.18551646       5.43010572         0.00000000       0.00000000       0.00000000          1
H         6.84437223       4.78971956       5.64925250         0.00000000       0.00000000       0.00000000          1
H         4.09982494       4.74424775       5.12996384         0.00000000       0.00000000       0.00000000          1
6
pbc=[F, F, F] list_num_par=6 energy=-1.26974174 iter=20000 frozen=false Lattice="15.00000000 0.00000000 0.00000000 0.00000000 15.00000000 0.00000000 0.00000000 0.00000000 15.00000000" energy_frozen_part=0.00000000 Properties=species:S:1:pos:R:3:velocities:R:3:Z:I:1
H         3.64422738       6.30507223       7.41909248         0.00000000       0.00000000       0.00000000          1
H         6.39119630       6.34501425       7.92592505         0.00000000       0.00000000       0.00000000          1
H         5.06097764       3.90648852       7.62861449         0.00000000       0.00000000       0.00000000          1
H         5.41639291       7.17931845       5.44439328         0.00000000       0.00000000       0.00000000          1
H         6.83313703       4.78073364       5.65391805         0.00000000       0.00000000       0.00000000          1
H         4.08617202       4.74079621       5.14708615         0.00000000       0.00000000       0.00000000          1
6
pbc=[F, F, F] list_num_par=6 energy=-1.26974174 iter=20000 frozen=false Lattice="15.00000000 0.00000000 0.00000000 0.00000000 15.00000000 0.00000000 0.00000000 0.00000000 15.00000000" energy_frozen_part=0.00000000 Properties=species:S:1:pos:R:3:velocities:R:3:Z:I:1
H         3.64458443       6.31013906       7.40055159         0.00000000       0.00000000       0.00000000          1
H         6.38944683       6.35396046       7.91832708         0.00000000       0.00000000       0.00000000          1
H         5.06372224       3.91354101       7.61655612         0.00000000       0.00000000       0.00000000          1
H         5.42343087       7.18609985       5.43263809         0.00000000       0.00000000       0.00000000          1
H         6.84256857       4.78950868       5.64864304         0.00000000       0.00000000       0.00000000          1
H         4.09769807       4.74567957       5.13087324         0.00000000       0.00000000       0.00000000          1
6
pbc=[F, F, F] list_num_par=6 energy=-1.26974174 iter=20000 frozen=false Lattice="15.00000000 0.00000000 0.00000000 0.00000000 15.00000000 0.00000000 0.00000000 0.00000000 15.00000000" energy_frozen_part=0.00000000 Properties=species:S:1:pos:R:3:velocities:R:3:Z:I:1
H         3.64508876       6.31101018       7.39769130         0.00000000       0.00000000       0.00000000          1
H         6.38963725       6.35548562       7.91706814         0.00000000       0.00000000       0.00000000          1
H         5.06432822       3.91471157       7.61634910         0.00000000       0.00000000       0.00000000          1
H         5.42502688       7.18566464       5.43018279         0.00000000       0.00000000       0.00000000          1
H         6.84425744       4.78936420       5.64883547         0.00000000       0.00000000       0.00000000          1
H         4.09970842       4.74488705       5.12945793         0.00000000       0.00000000       0.00000000          1
6
pbc=[F, F, F] list_num_par=6 energy=-1.26974174 iter=20000 frozen=false Lattice="15.00000000 0.00000000 0.00000000 0.00000000 15.00000000 0.00000000 0.00000000 0.00000000 15.00000000" energy_frozen_part=0.00000000 Properties=species:S:1:pos:R:3:velocities:R:3:Z:I:1
H         3.64423536       6.30508090       7.41908824         0.00000000       0.00000000       0.00000000          1
H         6.39120146       6.34502210       7.92592187         0.00000000       0.00000000       0.00000000          1
H         5.06098070       3.90649894       7.62861895         0.00000000       0.00000000       0.00000000          1
H         5.41639228       7.17932134       5.44438889         0.00000000       0.00000000       0.00000000          1
H         6.83313397       4.78073545       5.65391999         0.00000000       0.00000000       0.00000000          1
H         4.08617080       4.74079311       5.14708823         0.00000000       0.00000000       0.00000000          1
6
pbc=[F, F, F] list_num_par=6 energy=-1.26974174 iter=20000 frozen=false Lattice="15.00000000 0.00000000 0.00000000 0.00000000 15.00000000 0.00000000 0.00000000 0.00000000 15.00000000" energy_frozen_part=0.00000000 Properties=species:S:1:pos:R:3:velocities:R:3:Z:I:1
H         3.64423215       6.30507794       7.41908520         0.00000000       0.00000000       0.00000000          1
H         6.39119644       6.34501833       7.92591779         0.00000000       0.00000000       0.00000000          1
H         5.06097425       3.90649173       7.62861065         0.00000000       0.00000000       0.00000000          1
H         5.41639608       7.17931798       5.44439235         0.00000000       0.00000000       0.00000000          1
H         6.83313949       4.78073048       5.65391642         0.00000000       0.00000000       0.00000000          1
H         4.08617080       4.74079311       5.14708823         0.00000000       0.00000000       0.00000000          1
6
pbc=[F, F, F] list_num_par=6 energy=-1.26974174 iter=20000 frozen=false Lattice="15.00000000 0.00000000 0.00000000 0.00000000 15.00000000 0.00000000 0.00000000 0.00000000 15.00000000" energy_frozen_part=0.00000000 Properties=species:S:1:pos:R:3:velocities:R:3:Z:I:1
H         3.64429498       6.31011537       7.39984037         0.00000000       0.00000000       0.00000000          1
H         6.38901194       6.35400750       7.91836201         0.00000000       0.00000000       0.00000000          1
H         5.06342432       3.91355230       7.61621142         0.00000000       0.00000000       0.00000000          1
H         5.42365452       7.18614480       5.43241475         0.00000000       0.00000000       0.00000000          1
H         6.84278492       4.78958030       5.64879469         0.00000000       0.00000000       0.00000000          1
H         4.09806745       4.74569360       5.13026962         0.00000000       0.00000000       0.00000000          1
6
pbc=[F, F, F] list_num_par=6 energy=-1.26974174 iter=20000 frozen=false Lattice="15.00000000 0.00000000 0.00000000 0.00000000 15.00000000 0.00000000 0.00000000 0.00000000 15.00000000" energy_frozen_part=0.00000000 Properties=species:S:1:pos:R:3:velocities:R:3:Z:I:1
H         3.64429429       6.31012208       7.39981963         0.00000000       0.00000000       0.00000000          1
H         6.38900803       6.35399091       7.91835722         0.00000000       0.00000000       0.00000000          1
H         5.06340620       3.91354698       7.61620246         0.00000000       0.00000000       0.00000000          1
H         5.42366637       7.18613560       5.43240568         0.00000000       0.00000000       0.00000000          1
H         6.84278149       4.78956301       5.64878934         0.00000000       0.00000000       0.00000000          1
H         4.09806517       4.74568457       5.13025595         0.00000000       0.00000000       0.00000000          1
6
pbc=[F, F, F] list_num_par=6 energy=-1.26974174 iter=20000 frozen=false Lattice="15.00000000 0.00000000 0.00000000 0.00000000 15.00000000 0.00000000 0.00000000 0.00000000 15.00000000" energy_frozen_part=0.00000000 Properties=species:S:1:pos:R:3:velocities:R:3:Z:I:1
H         3.64473126       6.31061128       7.39782499         0.00000000       0.00000000       0.00000000          1
H         6.38928366       6.35613166       7.91708752         0.00000000       0.00000000       0.00000000          1
H         5.06478850       3.91483809       7.61694330         0.00000000       0.00000000       0.00000000          1
H         5.42428838       7.18544093       5.43005255         0.00000000       0.00000000       0.00000000          1
H         6.84435183       4.78967950       5.64917842         0.00000000       0.00000000       0.00000000          1
H         4.09979650       4.74415150       5.12991434         0.00000000       0.00000000       0.00000000          1
6
pbc=[F, F, F] list_num_par=6 energy=-1.26974174 iter=20000 frozen=false Lattice="15.00000000 0.00000000 0.00000000 0.00000000 15.00000000 0.00000000 0.00000000 0.00000000 15.00000000" energy_frozen_part=0.00000000 Properties=species:S:1:pos:R:3:velocities:R:3:Z:I:1
H         3.64473838       6.31059560       7.39784883         0.00000000       0.00000000       0.00000000          1
H         6.38929232       6.35610968       7.91709738         0.00000000       0.00000000       0.00000000          1
H         5.06479160       3.91482272       7.61695624         0.00000000       0.00000000       0.00000000          1
H         5.42428211       7.18543537       5.43007404         0.00000000       0.00000000       0.00000000          1
H         6.84433992       4.78966774       5.64917608         0.00000000       0.00000000       0.00000000          1
H         4.09978206       4.74414393       5.12993266         0.00000000       0.00000000       0.00000000          1
6
pbc=[F, F, F] list_num_par=6 energy=-1.26974174 iter=20000 frozen=false Lattice="15.00000000 0.00000000 0.00000000 0.00000000 15.00000000 0.00000000 0.00000000 0.00000000 15.00000000" energy_frozen_part=0.00000000 Properties=species:S:1:pos:R:3:velocities:R:3:Z:I:1
H         3.64458024       6.31024516       7.40047912         0.00000000       0.00000000       0.00000000          1
H         6.38943507       6.35399648       7.91828177         0.00000000       0.00000000       0.00000000          1
H         5.06362405       3.91360578       7.61662636         0.00000000       0.00000000       0.00000000          1
H         5.42348568       7.18604549       5.43253860         0.00000000       0.00000000       0.00000000          1
H         6.84252520       4.78940432       5.64868701         0.00000000       0.00000000       0.00000000          1
H         4.09767006       4.74565451       5.13088369         0.00000000       0.00000000       0.00000000          1
6
pbc=[F, F, F] list_num_par=6 energy=-1.26974174 iter=20000 frozen=false Lattice="15.00000000 0.00000000 0.00000000 0.00000000 15.00000000 0.00000000 0.00000000 0.00000000 15.00000000" energy_frozen_part=0.00000000 Properties=species:S:1:pos:R:3:velocities:R:3:Z:I:1
H         3.64429777       6.31011416       7.39983749         0.00000000       0.00000000       0.00000000          1
H         6.38902078       6.35398589       7.91836078         0.00000000       0.00000000       0.00000000          1
H         5.06342135       3.91354510       7.61619641         0.00000000       0.00000000       0.00000000          1
H         5.42365756       7.18614913       5.43242005         0.00000000       0.00000000       0.00000000          1
H         6.84278495       4.78957633       5.64877875         0.00000000       0.00000000       0.00000000          1
H         4.09806628       4.74570005       5.13025956         0.00000000       0.00000000       0.00000000          1
6
pbc=[F, F, F] list_num_par=6 energy=-1.26974174 iter=20000 frozen=false Lattice="15.00000000 0.00000000 0.00000000 0.00000000 15.00000000 0.00000000 0.00000000 0.00000000 15.00000000" energy_frozen_part=0.00000000 Properties=species:S:1:pos:R:3:velocities:R:3:Z:I:1
H         3.64464309       6.31017809       7.40052849         0.00000000       0.00000000       0.00000000          1
H         6.38951872       6.35398737       7.91824210         0.00000000       0.00000000       0.00000000          1
H         5.06375414       3.91356624       7.61655815         0.00000000       0.00000000       0.00000000          1
H         5.42345562       7.18607954       5.43255988         0.00000000       0.00000000       0.00000000          1
H         6.84257030       4.78946893       5.64859133         0.00000000       0.00000000       0.00000000          1
H         4.09769045       4.74566528       5.13087382         0.00000000       0.00000000       0.00000000          1
6
pbc=[F, F, F] list_num_par=6 energy=-1.26974174 iter=20000 frozen=false Lattice="15.00000000 0.00000000 0.00000000 0.00000000 15.00000000 0.00000000 0.00000000 0.00000000 15.00000000" energy_frozen_part=0.00000000 Properties=species:S:1:pos:R:3:velocities:R:3:Z:I:1
H         3.64468599       6.30623206       7.41908276         0.00000000       0.00000000       0.00000000          1
H         6.39185107       6.34573415       7.92487936         0.00000000       0.00000000       0.00000000          1
H         5.06114542       3.90741749       7.62802286         0.00000000       0.00000000       0.00000000          1
H         5.41623982       7.18024868       5.44374083         0.00000000       0.00000000       0.00000000          1
H         6.83269143       4.78143548       5.65267533         0.00000000       0.00000000       0.00000000          1
H         4.08553209       4.74193390       5.14688345         0.00000000       0.00000000       0.00000000          1
6
pbc=[F, F, F] list_num_par=6 energy=-1.26974174 iter=20000 frozen=false Lattice="15.00000000 0.00000000 0.00000000 0.00000000 15.00000000 0.00000000 0.00000000 0.00000000 15.00000000" energy_frozen_part=0.00000000 Properties=species:S:1:pos:R:3:velocities:R:3:Z:I:1
H         3.64423872       6.30509953       7.41908394         0.00000000       0.00000000       0.00000000          1
H         6.39120502       6.34502153       7.92591637         0.00000000       0.00000000       0.00000000          1
H         5.06096552       3.90650736       7.62862746         0.00000000       0.00000000       0.00000000          1
H         5.41641264       7.17931587       5.44438430         0.00000000       0.00000000       0.00000000          1
H         6.83313152       4.78072173       5.65392691         0.00000000       0.00000000       0.00000000          1
H         4.08616703       4.74080328       5.14709224         0.00000000       0.00000000       0.00000000          1
6
pbc=[F, F, F] list_num_par=6 energy=-1.26974174 iter=20000 frozen=false Lattice="15.00000000 0.00000000 0.00000000 0.00000000 15.00000000 0.00000000 0.00000000 0.00000000 15.00000000" energy_frozen_part=0.00000000 Properties=species:S:1:pos:R:3:velocities:R:3:Z:I:1
H         3.64459021       6.31024677       7.40048124         0.00000000       0.00000000       0.00000000          1
H         6.38944154       6.35398297       7.91830395         0.00000000       0.00000000       0.00000000          1
H         5.06362164       3.91360182       7.61662697         0.00000000       0.00000000       0.00000000          1
H         5.42350255       7.18604758       5.43256114         0.00000000       0.00000000       0.00000000          1
H         6.84253508       4.78939911       5.64870970         0.00000000       0.00000000       0.00000000          1
H         4.09767846       4.74566269       5.13088676         0.00000000       0.00000000       0.00000000          1
6
pbc=[F, F, F] list_num_par=6 energy=-1.26974174 iter=20000 frozen=false Lattice="15.00000000 0.00000000 0.00000000 0.00000000 15.00000000 0.00000000 0.00000000 0.00000000 15.00000000" energy_frozen_part=0.00000000 Properties=species:S:1:pos:R:3:velocities:R:3:Z:I:1
H         3.64473483       6.31059138       7.39783010         0.00000000       0.00000000       0.00000000          1
H         6.38929004       6.35612255       7.91708906         0.00000000       0.00000000       0.00000000          1
H         5.06480285       3.91483011       7.61691177         0.00000000       0.00000000       0.00000000          1
H         5.42429194       7.18547139       5.43007393         0.00000000       0.00000000       0.00000000          1
H         6.84435701       4.78970830       5.64915235         0.00000000       0.00000000       0.00000000          1
H         4.09980321       4.74417964       5.12989723         0.00000000       0.00000000       0.00000000          1
6
pbc=[F, F, F] list_num_par=6 energy=-1.26974174 iter=20000 frozen=false Lattice="15.00000000 0.00000000 0.00000000 0.00000000 15.00000000 0.00000000 0.00000000 0.00000000 15.00000000" energy_frozen_part=0.00000000 Properties=species:S:1:pos:R:3:velocities:R:3:Z:I:1
H         3.64477018       6.31073848       7.39786296         0.00000000       0.00000000       0.00000000          1
H         6.38932237       6.35621405       7.91715504         0.00000000       0.00000000       0.00000000          1
H         5.06478156       3.91494756       7.61703441         0.00000000       0.00000000       0.00000000          1
H         5.42437154       7.18551572       5.43010954         0.00000000       0.00000000       0.00000000          1
H         6.84437686       4.78972061       5.64926500         0.00000000       0.00000000       0.00000000          1
H         4.09982984       4.74424357       5.12998022         0.00000000       0.00000000       0.00000000          1
6
pbc=[F, F, F] list_num_par=6 energy=-1.26974174 iter=20000 frozen=false Lattice="15.00000000 0.00000000 0.00000000 0.00000000 15.00000000 0.00000000 0.00000000 0.00000000 15.00000000" energy_frozen_part=0.00000000 Properties=species:S:1:pos:R:3:velocities:R:3:Z:I:1
H         3.64417733       6.30506526       7.41908723         0.00000000       0.00000000       0.00000000          1
H         6.39113907       6.34503708       7.92592989         0.00000000       0.00000000       0.00000000          1
H         5.06094346       3.90649343       7.62862418         0.00000000       0.00000000       0.00000000          1
H         5.41633454       7.17932693       5.44439427         0.00000000       0.00000000       0.00000000          1
H         6.83311104       4.78075273       5.65393716         0.00000000       0.00000000       0.00000000          1
H         4.08615109       4.74078506       5.14708899         0.00000000       0.00000000       0.00000000          1
6
pbc=[F, F, F] list_num_par=6 energy=-1.26974174 iter=20000 frozen=false Lattice="15.00000000 0.00000000 0.00000000 0.00000000 15.00000000 0.00000000 0.00000000 0.00000000 15.00000000" energy_frozen_part=0.00000000 Properties=species:S:1:pos:R:3:velocities:R:3:Z:I:1
H         3.64476177       6.31060133       7.39786410         0.00000000       0.00000000       0.00000000          1
H         6.38932252       6.35608981       7.91707605         0.00000000       0.00000000       0.00000000          1