6
pbc=[F, F, F] list_num_par=6 frozen=false iter=9 energy=7274.40796979 Lattice="15.00000000 0.00000000 0.00000000 0.00000000 15.00000000 0.00000000 0.00000000 0.00000000 15.00000000" energy_frozen_part=0.00000000 Properties=species:S:1:pos:R:3:velocities:R:3:Z:I:1
H         4.40475145       0.34337424       5.73798215         0.00000000       0.00000000       0.00000000          1
H        11.62652069       4.14195670       2.05129142         0.00000000       0.00000000       0.00000000          1
H        12.67609455       8.41878038      11.41821973         0.00000000       0.00000000       0.00000000          1
H         6.91733858      14.57433996      12.68057351         0.00000000       0.00000000       0.00000000          1
H         6.14889160      14.44866904      11.89893020         0.00000000       0.00000000       0.00000000          1
H         4.14160016      12.77373893       3.84757352         0.00000000       0.00000000       0.00000000          1
6
pbc=[F, F, F] list_num_par=6 frozen=false iter=19 energy=17.82947466 Lattice="15.00000000 0.00000000 0.00000000 0.00000000 15.00000000 0.00000000 0.00000000 0.00000000 15.00000000" energy_frozen_part=0.00000000 Properties=species:S:1:pos:R:3:velocities:R:3:Z:I:1
H         1.63362015      14.02637162       1.94396808         0.00000000       0.00000000       0.00000000          1
H         5.61194182      12.49975568       5.56695117         0.00000000       0.00000000       0.00000000          1
H         7.06408792       1.15754728       4.66965506         0.00000000       0.00000000       0.00000000          1
H         6.87461170       0.47425353       6.32315091         0.00000000       0.00000000       0.00000000          1
H         0.72646818       9.97495112       1.42005943         0.00000000       0.00000000       0.00000000          1
H        12.17412509       8.61105157       5.75496525         0.00000000       0.00000000       0.00000000          1
6
pbc=[F, F, F] list_num_par=6 frozen=false iter=29 energy=0.04865781 Lattice="15.00000000 0.00000000 0.00000000 0.00000000 15.00000000 0.00000000 0.00000000 0.00000000 15.00000000" energy_frozen_part=0.00000000 Properties=species:S:1:pos:R:3:velocities:R:3:Z:I:1
H        10.20781216       9.60445228       3.46984092         0.00000000       0.00000000       0.00000000          1
H         9.78718150       4.67392568      11.19618583         0.00000000       0.00000000       0.00000000          1
H        14.79362975       5.51914567       3.67834880         0.00000000       0.00000000       0.00000000          1
H         8.22064248       1.23084791       4.39885534         0.00000000       0.00000000       0.00000000          1
H         2.35195111       6.35603166       1.70387140         0.00000000       0.00000000       0.00000000          1
H         8.65511402       2.58209933      10.59289927         0.00000000       0.00000000       0.00000000          1
6
pbc=[F, F, F] list_num_par=6 frozen=false iter=39 energy=-0.00421241 Lattice="15.00000000 0.00000000 0.00000000 0.00000000 15.00000000 0.00000000 0.00000000 0.00000000 15.00000000" energy_frozen_part=0.00000000 Properties=species:S:1:pos:R:3:velocities:R:3:Z:I:1
H        12.45454832       2.69491478       6.05891976         0.00000000       0.00000000       0.00000000          1
H        13.52958885      14.90562026       8.52891774         0.00000000       0.00000000       0.00000000          1
H         0.54661405      10.72931665       5.17113660         0.00000000       0.00000000       0.00000000          1
H         4.17269848       5.99443672       5.08735450         0.00000000       0.00000000       0.00000000          1
H         1.63218458      10.13371380      11.47171700         0.00000000       0.00000000       0.00000000          1
H         8.01036031      13.20483063       2.36437237         0.00000000       0.00000000       0.00000000          1
6
pbc=[F, F, F] list_num_par=6 frozen=false iter=49 energy=-0.00592359 Lattice="15.00000000 0.00000000 0.00000000 0.00000000 15.00000000 0.00000000 0.00000000 0.00000000 15.00000000" energy_frozen_part=0.00000000 Properties=species:S:1:pos:R:3:velocities:R:3:Z:I:1
H         8.21355189       3.46586383       9.06243062         0.00000000       0.00000000       0.00000000          1
H         3.12540719       7.96274259       8.27596756         0.00000000       0.00000000       0.00000000          1
H        11.45969220       5.70345979       4.30444988         0.00000000       0.00000000       0.00000000          1
H         0.40481167      11.30315367      12.57091728         0.00000000       0.00000000       0.00000000          1
H        11.16722051       8.98546395      14.72794384         0.00000000       0.00000000       0.00000000          1
H         1.43268873       1.33581386       7.56984829         0.00000000       0.00000000       0.00000000          1
6
pbc=[F, F, F] list_num_par=6 frozen=false iter=59 energy=-0.00787508 Lattice="15.00000000 0.00000000 0.00000000 0.00000000 15.00000000 0.00000000 0.00000000 0.00000000 15.00000000" energy_frozen_part=0.00000000 Properties=species:S:1:pos:R:3:velocities:R:3:Z:I:1
H         0.78125753       2.51633961       1.69964581         0.00000000       0.00000000       0.00000000          1
H         9.25870962      14.75572768       1.47027419         0.00000000       0.00000000       0.00000000          1
H        12.83029471      10.13066650      13.25747530         0.00000000       0.00000000       0.00000000          1
H         8.40566557      11.07327778      10.90657302         0.00000000       0.00000000       0.00000000          1
H         5.20957073       6.62581336      13.09144822         0.00000000       0.00000000       0.00000000          1
H        12.69781566       0.85863504      12.92790139         0.00000000       0.00000000       0.00000000          1
6
pbc=[F, F, F] list_num_par=6 frozen=false iter=69 energy=-0.01225924 Lattice="15.00000000 0.00000000 0.00000000 0.00000000 15.00000000 0.00000000 0.00000000 0.00000000 15.00000000" energy_frozen_part=0.00000000 Properties=species:S:1:pos:R:3:velocities:R:3:Z:I:1
H         6.36057509       9.48808210       1.40469836         0.00000000       0.00000000       0.00000000          1
H         4.46499729       8.47780062      10.03256254         0.00000000       0.00000000       0.00000000          1
H         7.93261766       4.66787278      11.84582494         0.00000000       0.00000000       0.00000000          1
H        12.39090747       7.37426988       4.49504399         0.00000000       0.00000000       0.00000000          1
H         6.84429736      12.92150678       4.86856785         0.00000000       0.00000000       0.00000000          1
H         0.26065476       0.57653510      13.91280163         0.00000000       0.00000000       0.00000000          1
6
pbc=[F, F, F] list_num_par=6 frozen=false iter=79 energy=-0.01498424 Lattice="15.00000000 0.00000000 0.00000000 0.00000000 15.00000000 0.00000000 0.00000000 0.00000000 15.00000000" energy_frozen_part=0.00000000 Properties=species:S:1:pos:R:3:velocities:R:3:Z:I:1
H         8.25724851       7.92263376       5.16910770         0.00000000       0.00000000       0.00000000          1
H        13.36127402       9.88996760       2.92476376         0.00000000       0.00000000       0.00000000          1
H        12.57005689       8.99872749      10.29398046         0.00000000       0.00000000       0.00000000          1
H         8.85419968      13.72104790       7.09306940         0.00000000       0.00000000       0.00000000          1
H         5.11767262       1.06373588       4.19797423         0.00000000       0.00000000       0.00000000          1
H        13.79310748      14.83773341       3.86063621         0.00000000       0.00000000       0.00000000          1
6
pbc=[F, F, F] list_num_par=6 frozen=false iter=89 energy=-0.02226724 Lattice="15.00000000 0.00000000 0.00000000 0.00000000 15.00000000 0.00000000 0.00000000 0.00000000 15.00000000" energy_frozen_part=0.00000000 Properties=species:S:1:pos:R:3:velocities:R:3:Z:I:1
H         8.37525282       5.14255029       9.42012002         0.00000000       0.00000000       0.00000000          1
H         9.07917683      10.33146341       4.35717145         0.00000000       0.00000000       0.00000000          1
H         0.61804265      13.74862036      11.59924185         0.00000000       0.00000000       0.00000000          1
H         3.82059414      12.45901424      14.35011318         0.00000000       0.00000000       0.00000000          1
H         3.36011757       0.56269316      14.06457476         0.00000000       0.00000000       0.00000000          1
H         7.45485980       8.97193305      13.19190711         0.00000000       0.00000000       0.00000000          1
6
pbc=[F, F, F] list_num_par=6 frozen=false iter=99 energy=-0.02821744 Lattice="15.00000000 0.00000000 0.00000000 0.00000000 15.00000000 0.00000000 0.00000000 0.00000000 15.00000000" energy_frozen_part=0.00000000 Properties=species:S:1:pos:R:3:velocities:R:3:Z:I:1
H        13.64548571       3.81492992       2.82168609         0.00000000       0.00000000       0.00000000          1
H         9.06274383       8.92045958       8.21146698         0.00000000       0.00000000       0.00000000          1
H        11.73539754       6.10565831       9.74464899         0.00000000       0.00000000       0.00000000          1
H        11.86853121       0.52680634       7.94910884         0.00000000       0.00000000       0.00000000          1
H         4.16766360       8.77688427       9.32836047         0.00000000       0.00000000       0.00000000          1
H         1.88621699       5.12007213       2.11793890         0.00000000       0.00000000       0.00000000          1
6
pbc=[F, F, F] list_num_par=6 frozen=false iter=109 energy=-0.03200639 Lattice="15.00000000 0.00000000 0.00000000 0.00000000 15.00000000 0.00000000 0.00000000 0.00000000 15.00000000" energy_frozen_part=0.00000000 Properties=species:S:1:pos:R:3:velocities:R:3:Z:I:1
H         1.49193204       1.70444677       8.08476278         0.00000000       0.00000000       0.00000000          1
H         3.60087150       8.63812312       3.64114196         0.00000000       0.00000000       0.00000000          1
H         5.23336715       1.99550049       7.61140682         0.00000000       0.00000000       0.00000000          1
H        10.92501586      11.19830104       5.49043651         0.00000000       0.00000000       0.00000000          1
H         6.76132655       9.35259975      12.51951836         0.00000000       0.00000000       0.00000000          1
H        12.95704048       4.07547727       9.98867809         0.00000000       0.00000000       0.00000000          1
6
pbc=[F, F, F] list_num_par=6 frozen=false iter=119 energy=-0.03483505 Lattice="15.00000000 0.00000000 0.00000000 0.00000000 15.00000000 0.00000000 0.00000000 0.00000000 15.00000000" energy_frozen_part=0.00000000 Properties=species:S:1:pos:R:3:velocities:R:3:Z:I:1
H         7.07022944       7.91220169      10.88714847         0.00000000       0.00000000       0.00000000          1
H        12.72715696      10.57179042      11.42610702         0.00000000       0.00000000       0.00000000          1
H        13.31673216      11.29465782       0.66108596         0.00000000       0.00000000       0.00000000          1
H         5.31885240       5.42204732       8.62325743         0.00000000       0.00000000       0.00000000          1
H         5.58439515       0.17151860      11.99130903         0.00000000       0.00000000       0.00000000          1
H         7.04511811      11.34294478       0.49906437         0.00000000       0.00000000       0.00000000          1
6
pbc=[F, F, F] list_num_par=6 frozen=false iter=129 energy=-0.04045260 Lattice="15.00000000 0.00000000 0.00000000 0.00000000 15.00000000 0.00000000 0.00000000 0.00000000 15.00000000" energy_frozen_part=0.00000000 Properties=species:S:1:pos:R:3:velocities:R:3:Z:I:1
H         7.36859048      11.81501831      13.76872429         0.00000000       0.00000000       0.00000000          1
H         3.94065878       3.89991761      10.44317173         0.00000000       0.00000000       0.00000000          1
H         5.29365359      14.14556578      11.96892532         0.00000000       0.00000000       0.00000000          1
H        14.34050845       0.06979109       6.83778997         0.00000000       0.00000000       0.00000000          1
H        11.15331855      14.28056869       2.25450212         0.00000000       0.00000000       0.00000000          1
H        11.66055440       0.38747942      13.34570551         0.00000000       0.00000000       0.00000000          1
6
pbc=[F, F, F] list_num_par=6 frozen=false iter=139 energy=-0.04606850 Lattice="15.00000000 0.00000000 0.00000000 0.00000000 15.00000000 0.00000000 0.00000000 0.00000000 15.00000000" energy_frozen_part=0.00000000 Properties=species:S:1:pos:R:3:velocities:R:3:Z:I:1
H         8.64671711       7.88578296       7.62674145         0.00000000       0.00000000       0.00000000          1
H         8.38211784       2.76823817      12.44864448         0.00000000       0.00000000       0.00000000          1
H        12.94545692       8.13974917       2.89838066         0.00000000       0.00000000       0.00000000          1
H        13.62072774       3.75339158       8.83530064         0.00000000       0.00000000       0.00000000          1
H         1.01935563      11.57585563       7.94726527         0.00000000       0.00000000       0.00000000          1
H        12.51614884       4.55509955       3.47171513         0.00000000       0.00000000       0.00000000          1
6
pbc=[F, F, F] list_num_par=6 frozen=false iter=149 energy=-0.05088470 Lattice="15.00000000 0.00000000 0.00000000 0.00000000 15.00000000 0.00000000 0.00000000 0.00000000 15.00000000" energy_frozen_part=0.00000000 Properties=species:S:1:pos:R:3:velocities:R:3:Z:I:1
H         9.88895132       5.44730052      10.76282869         0.00000000       0.00000000       0.00000000          1
H        12.53968605      11.67187553      13.10556938         0.00000000       0.00000000       0.00000000          1
H         2.90889680       7.93083063       8.12478940         0.00000000       0.00000000       0.00000000          1
H         0.11206606       0.93713029       3.99848649         0.00000000       0.00000000       0.00000000          1
H        11.13186066       5.31771044       3.51430162         0.00000000       0.00000000       0.00000000          1
H        11.59027770       5.44179287       0.09481414         0.00000000       0.00000000       0.00000000          1
6
pbc=[F, F, F] list_num_par=6 frozen=false iter=159 energy=-0.05451285 Lattice="15.00000000 0.00000000 0.00000000 0.00000000 15.00000000 0.00000000 0.00000000 0.00000000 15.00000000" energy_frozen_part=0.00000000 Properties=species:S:1:pos:R:3:velocities:R:3:Z:I:1
H        13.41210677      11.22794313      13.74121814         0.00000000       0.00000000       0.00000000          1
H         2.28047494      13.01293161       0.62428886         0.00000000       0.00000000       0.00000000          1
H        10.84142170       7.17552218      13.58647553         0.00000000       0.00000000       0.00000000          1
H         3.89962926       5.63998842       4.70148377         0.00000000       0.00000000       0.00000000          1
H        10.75696764       7.71612293      10.06535323         0.00000000       0.00000000       0.00000000          1
H         5.23026265      11.24266540       8.66908716         0.00000000       0.00000000       0.00000000          1
6
pbc=[F, F, F] list_num_par=6 frozen=false iter=169 energy=-0.06228532 Lattice="15.00000000 0.00000000 0.00000000 0.00000000 15.00000000 0.00000000 0.00000000 0.00000000 15.00000000" energy_frozen_part=0.00000000 Properties=species:S:1:pos:R:3:velocities:R:3:Z:I:1
H        14.81427474       5.08874000       7.05575555         0.00000000       0.00000000       0.00000000          1
H         1.88700416       5.96299311      10.86756835         0.00000000       0.00000000       0.00000000          1
H         7.92338488       3.10030120       7.50534371         0.00000000       0.00000000       0.00000000          1
H        11.55647102      13.19808447       6.19028424         0.00000000       0.00000000       0.00000000          1
H         4.15780905       5.36679978      10.13259885         0.00000000       0.00000000       0.00000000          1
H        14.43621406       6.17169940       4.49155099         0.00000000       0.00000000       0.00000000          1
6
pbc=[F, F, F] list_num_par=6 frozen=false iter=179 energy=-0.06926065 Lattice="15.00000000 0.00000000 0.00000000 0.00000000 15.00000000 0.00000000 0.00000000 0.00000000 15.00000000" energy_frozen_part=0.00000000 Properties=species:S:1:pos:R:3:velocities:R:3:Z:I:1
H        10.81621459      13.10172254       8.04673911         0.00000000       0.00000000       0.00000000          1
H         3.53388323       9.37996996      10.73353855         0.00000000       0.00000000       0.00000000          1
H        12.75639440      14.77565487      14.74356030         0.00000000       0.00000000       0.00000000          1
H         7.60920878       9.01267212      13.57328842         0.00000000       0.00000000       0.00000000          1
H        11.23495296       1.76754600      14.38143833         0.00000000       0.00000000       0.00000000          1
H        13.98615229      12.38517209       8.68897150         0.00000000       0.00000000       0.00000000          1
6
pbc=[F, F, F] list_num_par=6 frozen=false iter=189 energy=-0.07634471 Lattice="15.00000000 0.00000000 0.00000000 0.00000000 15.00000000 0.00000000 0.00000000 0.00000000 15.00000000" energy_frozen_part=0.00000000 Properties=species:S:1:pos:R:3:velocities:R:3:Z:I:1
H         6.16768059       2.30166513       9.09794989         0.00000000       0.00000000       0.00000000          1
H         2.61877597      13.41219317       3.59592243         0.00000000       0.00000000       0.00000000          1
H        10.26426594      12.13785500       7.10039555         0.00000000       0.00000000       0.00000000          1
H         6.83326356       0.48232184      12.76181838         0.00000000       0.00000000       0.00000000          1
H        10.31536500       6.18479024      12.21324365         0.00000000       0.00000000       0.00000000          1
H        10.20520788       2.16170644      12.72582348         0.00000000       0.00000000       0.00000000          1
6
pbc=[F, F, F] list_num_par=6 frozen=false iter=199 energy=-0.08347555 Lattice="15.00000000 0.00000000 0.00000000 0.00000000 15.00000000 0.00000000 0.00000000 0.00000000 15.00000000" energy_frozen_part=0.00000000 Properties=species:S:1:pos:R:3:velocities:R:3:Z:I:1
H         5.97878175       7.52868852      10.54634801         0.00000000       0.00000000       0.00000000          1
H        12.32849301      14.50134224      13.68558176         0.00000000       0.00000000       0.00000000          1
H         8.24850677       3.42288714       2.71110930         0.00000000       0.00000000       0.00000000          1
H         7.97195151       6.30441064      14.98100661         0.00000000       0.00000000       0.00000000          1
H         8.52037428       4.81461729       7.09818740         0.00000000       0.00000000       0.00000000          1
H         5.33070415       2.52249409       1.45109251         0.00000000       0.00000000       0.00000000          1
6
pbc=[F, F, F] list_num_par=6 frozen=false iter=209 energy=-0.09057574 Lattice="15.00000000 0.00000000 0.00000000 0.00000000 15.00000000 0.00000000 0.00000000 0.00000000 15.00000000" energy_frozen_part=0.00000000 Properties=species:S:1:pos:R:3:velocities:R:3:Z:I:1
H         0.79671987      12.31907697      12.85798892         0.00000000       0.00000000       0.00000000          1
H         8.95790188      14.99567260       2.82858953         0.00000000       0.00000000       0.00000000          1
H         0.62064811      10.62081349      10.38856251         0.00000000       0.00000000       0.00000000          1
H        14.28565593       1.32939738       4.33674811         0.00000000       0.00000000       0.00000000          1
H        14.69675290      11.54083152      12.62847004         0.00000000       0.00000000       0.00000000          1
H         5.88256677       9.75464825       6.13397242         0.00000000       0.00000000       0.00000000          1
6
pbc=[F, F, F] list_num_par=6 frozen=false iter=219 energy=-0.09405824 Lattice="15.00000000 0.00000000 0.00000000 0.00000000 15.00000000 0.00000000 0.00000000 0.00000000 15.00000000" energy_frozen_part=0.00000000 Properties=species:S:1:pos:R:3:velocities:R:3:Z:I:1
H         9.42958583       1.70813907       3.21330603         0.00000000       0.00000000       0.00000000          1
H         9.37289753       6.52515956       8.12594771         0.00000000       0.00000000       0.00000000          1
H         9.42863292       1.66535626       7.45034634         0.00000000       0.00000000       0.00000000          1
H         4.62273105       4.93163015      12.64809351         0.00000000       0.00000000       0.00000000          1
H         4.57057374       2.10704196       9.87543766         0.00000000       0.00000000       0.00000000          1
H         6.90064339       9.10118110       8.76352016         0.00000000       0.00000000       0.00000000          1
6
pbc=[F, F, F] list_num_par=6 frozen=false iter=229 energy=-0.09857132 Lattice="15.00000000 0.00000000 0.00000000 0.00000000 15.00000000 0.00000000 0.00000000 0.00000000 15.00000000" energy_frozen_part=0.00000000 Properties=species:S:1:pos:R:3:velocities:R:3:Z:I:1
H         9.69443547       2.25435340      10.36877440         0.00000000       0.00000000       0.00000000          1
H         1.16923877       8.95871078       3.01296932         0.00000000       0.00000000       0.00000000          1
H        11.35264717       0.03687815       3.01636313         0.00000000       0.00000000       0.00000000          1
H        11.84214489      12.55769243       4.19877645         0.00000000       0.00000000       0.00000000          1
H         0.18102074       1.23319469      13.75889985         0.00000000       0.00000000       0.00000000          1
H        11.40492146      10.48742363       2.44190930         0.00000000       0.00000000       0.00000000          1
6
pbc=[F, F, F] list_num_par=6 frozen=false iter=239 energy=-0.10111137 Lattice="15.00000000 0.00000000 0.00000000 0.00000000 15.00000000 0.00000000 0.00000000 0.00000000 15.00000000" energy_frozen_part=0.00000000 Properties=species:S:1:pos:R:3:velocities:R:3:Z:I:1
H        14.70147240       7.16885784      13.45221390         0.00000000       0.00000000       0.00000000          1
H         3.82597983       5.58291239       7.76086249         0.00000000       0.00000000       0.00000000          1
H        13.64142907       2.99431818       7.88653739         0.00000000       0.00000000       0.00000000          1
H        12.27325095      14.74554852       3.02948869         0.00000000       0.00000000       0.00000000          1
H         6.38432736       0.97227697      12.53888343         0.00000000       0.00000000       0.00000000          1
H        13.09261326      12.13194592       3.52372865         0.00000000       0.00000000       0.00000000          1
6
pbc=[F, F, F] list_num_par=6 frozen=false iter=249 energy=-0.10524371 Lattice="15.00000000 0.00000000 0.00000000 0.00000000 15.00000000 0.00000000 0.00000000 0.00000000 15.00000000" energy_frozen_part=0.00000000 Properties=species:S:1:pos:R:3:velocities:R:3:Z:I:1
H         6.79463074      11.21409244       2.31554757         0.00000000       0.00000000       0.00000000          1
H         8.80397426      12.56409104       3.51439388         0.00000000       0.00000000       0.00000000          1
H         6.19447509      12.79403128      11.54603031         0.00000000       0.00000000       0.00000000          1
H        14.75586077       1.66710050       4.58393736         0.00000000       0.00000000       0.00000000          1
H         5.21938590       8.98391596      13.72260695         0.00000000       0.00000000       0.00000000          1
H         2.38549070       2.08901166      11.26683576         0.00000000       0.00000000       0.00000000          1
6
pbc=[F, F, F] list_num_par=6 frozen=false iter=259 energy=-0.10717335 Lattice="15.00000000 0.00000000 0.00000000 0.00000000 15.00000000 0.00000000 0.00000000 0.00000000 15.00000000" energy_frozen_part=0.00000000 Properties=species:S:1:pos:R:3:velocities:R:3:Z:I:1
H        13.89180615       8.13051298       3.98594046         0.00000000       0.00000000       0.00000000          1
H         4.14519293      12.58797349      12.36579166         0.00000000       0.00000000       0.00000000          1
H        14.42268304       3.78689798       9.88369831         0.00000000       0.00000000       0.00000000          1
H         1.58725427      12.95708115      14.32939927         0.00000000       0.00000000       0.00000000          1
H        14.44992019      13.49784817       2.74801413         0.00000000       0.00000000       0.00000000          1
H        12.85153093       1.40726235      12.14841125         0.00000000       0.00000000       0.00000000          1
6
pbc=[F, F, F] list_num_par=6 frozen=false iter=269 energy=-0.10973951 Lattice="15.00000000 0.00000000 0.00000000 0.00000000 15.00000000 0.00000000 0.00000000 0.00000000 15.00000000" energy_frozen_part=0.00000000 Properties=species:S:1:pos:R:3:velocities:R:3:Z:I:1
H        10.47864664       8.18554095       3.45104442         0.00000000       0.00000000       0.00000000          1
H        10.98343904       9.30742030      12.91986096         0.00000000       0.00000000       0.00000000          1
H         3.73014850       7.14204975       2.16889619         0.00000000       0.00000000       0.00000000          1
H        12.43300885       0.35647111       7.96048685         0.00000000       0.00000000       0.00000000          1
H         8.68346272       3.77782419       9.06136629         0.00000000       0.00000000       0.00000000          1
H         7.46403507       5.63752957       7.45475516         0.00000000       0.00000000       0.00000000          1
6
pbc=[F, F, F] list_num_par=6 frozen=false iter=279 energy=-0.11142025 Lattice="15.00000000 0.00000000 0.00000000 0.00000000 15.00000000 0.00000000 0.00000000 0.00000000 15.00000000" energy_frozen_part=0.00000000 Properties=species:S:1:pos:R:3:velocities:R:3:Z:I:1
H         8.01866249       6.10399913       1.40770667         0.00000000       0.00000000       0.00000000          1
H         3.02577240       9.62223347      10.84901903         0.00000000       0.00000000       0.00000000          1
H         0.73315112       8.19826855      11.52583008         0.00000000       0.00000000       0.00000000          1
H         6.30695922       4.43555037       7.47385795         0.00000000       0.00000000       0.00000000          1
H        13.81884416       3.79434201      11.67925056         0.00000000       0.00000000       0.00000000          1
H         5.31129229      11.90565668      14.32498230         0.00000000       0.00000000       0.00000000          1
6
pbc=[F, F, F] list_num_par=6 frozen=false iter=289 energy=-0.11436242 Lattice="15.00000000 0.00000000 0.00000000 0.00000000 15.00000000 0.00000000 0.00000000 0.00000000 15.00000000" energy_frozen_part=0.00000000 Properties=species:S:1:pos:R:3:velocities:R:3:Z:I:1
H         5.59638882       6.68297797       2.66329832         0.00000000       0.00000000       0.00000000          1
H         6.86090207       9.17528276      11.43592952         0.00000000       0.00000000       0.00000000          1
H         3.75200994       0.12597465       1.23411140         0.00000000       0.00000000       0.00000000          1
H        10.75259340       9.43855909      13.35429941         0.00000000       0.00000000       0.00000000          1
H        14.28429491       0.80443966       8.90826095         0.00000000       0.00000000       0.00000000          1
H        12.22073179       0.19518558      10.67511972         0.00000000       0.00000000       0.00000000          1
6
pbc=[F, F, F] list_num_par=6 frozen=false iter=299 energy=-0.11805305 Lattice="15.00000000 0.00000000 0.00000000 0.00000000 15.00000000 0.00000000 0.00000000 0.00000000 15.00000000" energy_frozen_part=0.00000000 Properties=species:S:1:pos:R:3:velocities:R:3:Z:I:1
H        13.24961152       7.92517913       6.39266002         0.00000000       0.00000000       0.00000000          1
H         2.81721803      13.30475519       7.68616656         0.00000000       0.00000000       0.00000000          1
H         4.39516735      14.30771197       2.06033338         0.00000000       0.00000000       0.00000000          1
H        12.46892857       3.95975326      13.25865070         0.00000000       0.00000000       0.00000000          1
H         3.75110463       8.07940676       2.47352982         0.00000000       0.00000000       0.00000000          1
H         2.36689723      10.48661589       3.24199520         0.00000000       0.00000000       0.00000000          1
6
pbc=[F, F, F] list_num_par=6 frozen=false iter=309 energy=-0.12307348 Lattice="15.00000000 0.00000000 0.00000000 0.00000000 15.00000000 0.00000000 0.00000000 0.00000000 15.00000000" energy_frozen_part=0.00000000 Properties=species:S:1:pos:R:3:velocities:R:3:Z:I:1
H        13.76260563      11.25814670       1.90643188         0.00000000       0.00000000       0.00000000          1
H        11.14548945      12.33636418       8.62693957         0.00000000       0.00000000       0.00000000          1