6
pbc=[F, F, F] list_num_par=6 energy=-1.26974174 iter=20000 frozen=false Lattice="15.00000000 0.00000000 0.00000000 0.00000000 15.00000000 0.00000000 0.00000000 0.00000000 15.00000000" energy_frozen_part=0.00000000 Properties=species:S:1:pos:R:3:velocities:R:3:Z:I:1
H         4.65374110       5.99140976       1.99876416         0.00000000       0.00000000       0.00000000          1
H         4.16871922       7.44646029       4.33369096         0.00000000       0.00000000       0.00000000          1
H         7.22551352       7.07338668       1.85872976         0.00000000       0.00000000       0.00000000          1
H         5.00609292       8.76266404       2.01621731         0.00000000       0.00000000       0.00000000          1
H         6.38814340       5.75718609       4.17620814         0.00000000       0.00000000       0.00000000          1
H         6.74049440       8.52842816       4.19365915         0.00000000       0.00000000       0.00000000          1
6
pbc=[F, F, F] list_num_par=6 energy=-1.26974174 iter=20000 frozen=false Lattice="15.00000000 0.00000000 0.00000000 0.00000000 15.00000000 0.00000000 0.00000000 0.00000000 15.00000000" energy_frozen_part=0.00000000 Properties=species:S:1:pos:R:3:velocities:R:3:Z:I:1
H         4.65378540       5.99142244       1.99860715         0.00000000       0.00000000       0.00000000          1
H         4.16874625       7.44620097       4.33369900         0.00000000       0.00000000       0.00000000          1
H         7.22552834       7.07347776       1.85866205         0.00000000       0.00000000       0.00000000          1
H         5.00606353       8.76267846       2.01635239         0.00000000       0.00000000       0.00000000          1
H         6.38821741       5.75700393       4.17600975         0.00000000       0.00000000       0.00000000          1
H         6.74048863       8.52825466       4.19375603         0.00000000       0.00000000       0.00000000          1
6
pbc=[F, F, F] list_num_par=6 energy=-1.26974174 iter=20000 frozen=false Lattice="15.00000000 0.00000000 0.00000000 0.00000000 15.00000000 0.00000000 0.00000000 0.00000000 15.00000000" energy_frozen_part=0.00000000 Properties=species:S:1:pos:R:3:velocities:R:3:Z:I:1
H         4.65379100       5.99139424       1.99868447         0.00000000       0.00000000       0.00000000          1
H         4.16878989       7.44619298       4.33376414         0.00000000       0.00000000       0.00000000          1
H         7.22553887       7.07342745       1.85871819         0.00000000       0.00000000       0.00000000          1
H         5.00608766       8.76264694       2.01640816         0.00000000       0.00000000       0.00000000          1
H         6.38823182       5.75696951       4.17607478         0.00000000       0.00000000       0.00000000          1
H         6.74053480       8.52822643       4.19380274         0.00000000       0.00000000       0.00000000          1
6
pbc=[F, F, F] list_num_par=6 energy=-1.26974174 iter=20000 frozen=false Lattice="15.00000000 0.00000000 0.00000000 0.00000000 15.00000000 0.00000000 0.00000000 0.00000000 15.00000000" energy_frozen_part=0.00000000 Properties=species:S:1:pos:R:3:velocities:R:3:Z:I:1
H         4.65381459       5.99131472       1.99863039         0.00000000       0.00000000       0.00000000          1
H         4.16875304       7.44615839       4.33367577         0.00000000       0.00000000       0.00000000          1
H         7.22553148       7.07342468       1.85865953         0.00000000       0.00000000       0.00000000          1
H         5.00604004       8.76258626       2.01629337         0.00000000       0.00000000       0.00000000          1
H         6.38824912       5.75700230       4.17604050         0.00000000       0.00000000       0.00000000          1
H         6.74047148       8.52827028       4.19370299         0.00000000       0.00000000       0.00000000          1
6
pbc=[F, F, F] list_num_par=6 energy=-1.26974174 iter=20000 frozen=false Lattice="15.00000000 0.00000000 0.00000000 0.00000000 15.00000000 0.00000000 0.00000000 0.00000000 15.00000000" energy_frozen_part=0.00000000 Properties=species:S:1:pos:R:3:velocities:R:3:Z:I:1
H         4.65380767       5.99131688       1.99863759         0.00000000       0.00000000       0.00000000          1
H         4.16874664       7.44615925       4.33367700         0.00000000       0.00000000       0.00000000          1
H         7.22552724       7.07342089       1.85865203         0.00000000       0.00000000       0.00000000          1
H         5.00603427       8.76258311       2.01629341         0.00000000       0.00000000       0.00000000          1
H         6.38824912       5.75700230       4.17604050         0.00000000       0.00000000       0.00000000          1
H         6.74047003       8.52826852       4.19370295         0.00000000       0.00000000       0.00000000          1
6
pbc=[F, F, F] list_num_par=6 energy=-1.26974174 iter=20000 frozen=false Lattice="15.00000000 0.00000000 0.00000000 0.00000000 15.00000000 0.00000000 0.00000000 0.00000000 15.00000000" energy_frozen_part=0.00000000 Properties=species:S:1:pos:R:3:velocities:R:3:Z:I:1
H         4.64236559       5.95105703       2.03219416         0.00000000       0.00000000       0.00000000          1
H         4.15446816       7.40198634       4.36907732         0.00000000       0.00000000       0.00000000          1
H         7.20474271       7.05382664       1.88247966         0.00000000       0.00000000       0.00000000          1
H         4.97233281       8.72507189       2.04855463         0.00000000       0.00000000       0.00000000          1
H         6.38688615       5.73074505       4.20300219         0.00000000       0.00000000       0.00000000          1
H         6.71684705       8.50475442       4.21936611         0.00000000       0.00000000       0.00000000          1
6
pbc=[F, F, F] list_num_par=6 energy=-1.26974174 iter=20000 frozen=false Lattice="15.00000000 0.00000000 0.00000000 0.00000000 15.00000000 0.00000000 0.00000000 0.00000000 15.00000000" energy_frozen_part=0.00000000 Properties=species:S:1:pos:R:3:velocities:R:3:Z:I:1
H         4.65377215       5.99138186       1.99869583         0.00000000       0.00000000       0.00000000          1
H         4.16878230       7.44619203       4.33377531         0.00000000       0.00000000       0.00000000          1
H         7.22552473       7.07341636       1.85871373         0.00000000       0.00000000       0.00000000          1
H         5.00608012       8.76263905       2.01641010         0.00000000       0.00000000       0.00000000          1
H         6.38822212       5.75696259       4.17607790         0.00000000       0.00000000       0.00000000          1
H         6.74053349       8.52821637       4.19380313         0.00000000       0.00000000       0.00000000          1
6
pbc=[F, F, F] list_num_par=6 energy=-1.26974174 iter=20000 frozen=false Lattice="15.00000000 0.00000000 0.00000000 0.00000000 15.00000000 0.00000000 0.00000000 0.00000000 15.00000000" energy_frozen_part=0.00000000 Properties=species:S:1:pos:R:3:velocities:R:3:Z:I:1
H         4.65377392       5.99143340       1.99860385         0.00000000       0.00000000       0.00000000          1
H         4.16874815       7.44618694       4.33370652         0.00000000       0.00000000       0.00000000          1
H         7.22550661       7.07349736       1.85865655         0.00000000       0.00000000       0.00000000          1
H         5.00604338       8.76269325       2.01637307         0.00000000       0.00000000       0.00000000          1
H         6.38821382       5.75699600       4.17599254         0.00000000       0.00000000       0.00000000          1
H         6.74048445       8.52825320       4.19375819         0.00000000       0.00000000       0.00000000          1
6
pbc=[F, F, F] list_num_par=6 energy=-1.26974174 iter=20000 frozen=false Lattice="15.00000000 0.00000000 0.00000000 0.00000000 15.00000000 0.00000000 0.00000000 0.00000000 15.00000000" energy_frozen_part=0.00000000 Properties=species:S:1:pos:R:3:velocities:R:3:Z:I:1
H         4.65377286       5.99141935       1.99863013         0.00000000       0.00000000       0.00000000          1
H         4.16876404       7.44621146       4.33372163         0.00000000       0.00000000       0.00000000          1
H         7.22551358       7.07347965       1.85865824         0.00000000       0.00000000       0.00000000          1
H         5.00604432       8.76267408       2.01636087         0.00000000       0.00000000       0.00000000          1
H         6.38822536       5.75701068       4.17602163         0.00000000       0.00000000       0.00000000          1
H         6.74050568       8.52827047       4.19374527         0.00000000       0.00000000       0.00000000          1
6
pbc=[F, F, F] list_num_par=6 energy=-1.26974174 iter=20000 frozen=false Lattice="15.00000000 0.00000000 0.00000000 0.00000000 15.00000000 0.00000000 0.00000000 0.00000000 15.00000000" energy_frozen_part=0.00000000 Properties=species:S:1:pos:R:3:velocities:R:3:Z:I:1
H         4.65386521       5.99138435       1.99868244         0.00000000       0.00000000       0.00000000          1
H         4.16866864       7.44632681       4.33363918         0.00000000       0.00000000       0.00000000          1
H         7.22558740       7.07349020       1.85880347         0.00000000       0.00000000       0.00000000          1
H         5.00608196       8.76265330       2.01624888         0.00000000       0.00000000       0.00000000          1
H         6.38817723       5.75716761       4.17620267         0.00000000       0.00000000       0.00000000          1
H         6.74039995       8.52843346       4.19376467         0.00000000       0.00000000       0.00000000          1
6
pbc=[F, F, F] list_num_par=6 energy=-1.26974174 iter=20000 frozen=false Lattice="15.00000000 0.00000000 0.00000000 0.00000000 15.00000000 0.00000000 0.00000000 0.00000000 15.00000000" energy_frozen_part=0.00000000 Properties=species:S:1:pos:R:3:velocities:R:3:Z:I:1
H         4.65383369       5.99143863       1.99864756         0.00000000       0.00000000       0.00000000          1
H         4.16866969       7.44635728       4.33362756         0.00000000       0.00000000       0.00000000          1
H         7.22557933       7.07348956       1.85878311         0.00000000       0.00000000       0.00000000          1
H         5.00610583       8.76269387       2.01625301         0.00000000       0.00000000       0.00000000          1
H         6.38814630       5.75714411       4.17615614         0.00000000       0.00000000       0.00000000          1
H         6.74042171       8.52840592       4.19375816         0.00000000       0.00000000       0.00000000          1
6
pbc=[F, F, F] list_num_par=6 energy=-1.26974174 iter=20000 frozen=false Lattice="15.00000000 0.00000000 0.00000000 0.00000000 15.00000000 0.00000000 0.00000000 0.00000000 15.00000000" energy_frozen_part=0.00000000 Properties=species:S:1:pos:R:3:velocities:R:3:Z:I:1
H         4.65386370       5.99139853       1.99868064         0.00000000       0.00000000       0.00000000          1
H         4.16866515       7.44634314       4.33363314         0.00000000       0.00000000       0.00000000          1
H         7.22559971       7.07347629       1.85883154         0.00000000       0.00000000       0.00000000          1
H         5.00610577       8.76265882       2.01624095         0.00000000       0.00000000       0.00000000          1
H         6.38815783       5.75716034       4.17621326         0.00000000       0.00000000       0.00000000          1
H         6.74039426       8.52842395       4.19377707         0.00000000       0.00000000       0.00000000          1
6
pbc=[F, F, F] list_num_par=6 energy=-1.26974174 iter=20000 frozen=false Lattice="15.00000000 0.00000000 0.00000000 0.00000000 15.00000000 0.00000000 0.00000000 0.00000000 15.00000000" energy_frozen_part=0.00000000 Properties=species:S:1:pos:R:3:velocities:R:3:Z:I:1
H         4.65382847       5.99145646       1.99865518         0.00000000       0.00000000       0.00000000          1
H         4.16869380       7.44636362       4.33364437         0.00000000       0.00000000       0.00000000          1
H         7.22558046       7.07349159       1.85877329         0.00000000       0.00000000       0.00000000          1
H         5.00611331       8.76271594       2.01626900         0.00000000       0.00000000       0.00000000          1
H         6.38815381       5.75714438       4.17614979         0.00000000       0.00000000       0.00000000          1
H         6.74045129       8.52840457       4.19376047         0.00000000       0.00000000       0.00000000          1
6
pbc=[F, F, F] list_num_par=6 energy=-1.26974174 iter=20000 frozen=false Lattice="15.00000000 0.00000000 0.00000000 0.00000000 15.00000000 0.00000000 0.00000000 0.00000000 15.00000000" energy_frozen_part=0.00000000 Properties=species:S:1:pos:R:3:velocities:R:3:Z:I:1
H         4.65381430       5.99137413       1.99866944         0.00000000       0.00000000       0.00000000          1
H         4.16881269       7.44613814       4.33377675         0.00000000       0.00000000       0.00000000          1
H         7.22555610       7.07343782       1.85870690         0.00000000       0.00000000       0.00000000          1
H         5.00609071       8.76263253       2.01642964         0.00000000       0.00000000       0.00000000          1
H         6.38827109       5.75694585       4.17604631         0.00000000       0.00000000       0.00000000          1
H         6.74054923       8.52820014       4.19381088         0.00000000       0.00000000       0.00000000          1
6
pbc=[F, F, F] list_num_par=6 energy=-1.26974174 iter=20000 frozen=false Lattice="15.00000000 0.00000000 0.00000000 0.00000000 15.00000000 0.00000000 0.00000000 0.00000000 15.00000000" energy_frozen_part=0.00000000 Properties=species:S:1:pos:R:3:velocities:R:3:Z:I:1
H         4.65373893       5.99143639       1.99874536         0.00000000       0.00000000       0.00000000          1
H         4.16870641       7.44645429       4.33368614         0.00000000       0.00000000       0.00000000          1
H         7.22550779       7.07341641       1.85874085         0.00000000       0.00000000       0.00000000          1
H         5.00607682       8.76269003       2.01622597         0.00000000       0.00000000       0.00000000          1
H         6.38812791       5.75717903       4.17619942         0.00000000       0.00000000       0.00000000          1
H         6.74047184       8.52843222       4.19367552         0.00000000       0.00000000       0.00000000          1
6
pbc=[F, F, F] list_num_par=6 energy=-1.26974174 iter=20000 frozen=false Lattice="15.00000000 0.00000000 0.00000000 0.00000000 15.00000000 0.00000000 0.00000000 0.00000000 15.00000000" energy_frozen_part=0.00000000 Properties=species:S:1:pos:R:3:velocities:R:3:Z:I:1
H         4.64237718       5.95107253       2.03218261         0.00000000       0.00000000       0.00000000          1
H         4.15447200       7.40198027       4.36907860         0.00000000       0.00000000       0.00000000          1
H         7.20475260       7.05384173       1.88249036         0.00000000       0.00000000       0.00000000          1
H         4.97234195       8.72508158       2.04856828         0.00000000       0.00000000       0.00000000          1
H         6.38688600       5.73074410       4.20299476         0.00000000       0.00000000       0.00000000          1
H         6.71684574       8.50475719       4.21938828         0.00000000       0.00000000       0.00000000          1
6
pbc=[F, F, F] list_num_par=6 energy=-1.26974174 iter=20000 frozen=false Lattice="15.00000000 0.00000000 0.00000000 0.00000000 15.00000000 0.00000000 0.00000000 0.00000000 15.00000000" energy_frozen_part=0.00000000 Properties=species:S:1:pos:R:3:velocities:R:3:Z:I:1
H         4.65393615       5.99135946       1.99860802         0.00000000       0.00000000       0.00000000          1
H         4.16880597       7.44630562       4.33357274         0.00000000       0.00000000       0.00000000          1
H         7.22569935       7.07338796       1.85871769         0.00000000       0.00000000       0.00000000          1
H         5.00624587       8.76261874       2.01618268         0.00000000       0.00000000       0.00000000          1
H         6.38825607       5.75706987       4.17611008         0.00000000       0.00000000       0.00000000          1
H         6.74056546       8.52832411       4.19369023         0.00000000       0.00000000       0.00000000          1
6
pbc=[F, F, F] list_num_par=6 energy=-1.26974174 iter=20000 frozen=false Lattice="15.00000000 0.00000000 0.00000000 0.00000000 15.00000000 0.00000000 0.00000000 0.00000000 15.00000000" energy_frozen_part=0.00000000 Properties=species:S:1:pos:R:3:velocities:R:3:Z:I:1
H         4.65377776       5.99140655       1.99873825         0.00000000       0.00000000       0.00000000          1
H         4.16872366       7.44643460       4.33367333         0.00000000       0.00000000       0.00000000          1
H         7.22553826       7.07340848       1.85873965         0.00000000       0.00000000       0.00000000          1
H         5.00609517       8.76266341       2.01621469         0.00000000       0.00000000       0.00000000          1
H         6.38815631       5.75717264       4.17619822         0.00000000       0.00000000       0.00000000          1
H         6.74048787       8.52842713       4.19367516         0.00000000       0.00000000       0.00000000          1
6
pbc=[F, F, F] list_num_par=6 energy=-1.26974174 iter=20000 frozen=false Lattice="15.00000000 0.00000000 0.00000000 0.00000000 15.00000000 0.00000000 0.00000000 0.00000000 15.00000000" energy_frozen_part=0.00000000 Properties=species:S:1:pos:R:3:velocities:R:3:Z:I:1
H         4.65375294       5.99141239       1.99875003         0.00000000       0.00000000       0.00000000          1
H         4.16868816       7.44643680       4.33368380         0.00000000       0.00000000       0.00000000          1
H         7.22551043       7.07341924       1.85875351         0.00000000       0.00000000       0.00000000          1
H         5.00606340       8.76266578       2.01622272         0.00000000       0.00000000       0.00000000          1
H         6.38813114       5.75718287       4.17620976         0.00000000       0.00000000       0.00000000          1
H         6.74045203       8.52843459       4.19368187         0.00000000       0.00000000       0.00000000          1
6
pbc=[F, F, F] list_num_par=6 energy=-1.26974174 iter=20000 frozen=false Lattice="15.00000000 0.00000000 0.00000000 0.00000000 15.00000000 0.00000000 0.00000000 0.00000000 15.00000000" energy_frozen_part=0.00000000 Properties=species:S:1:pos:R:3:velocities:R:3:Z:I:1
H         4.65377501       5.99141006       1.99873755         0.00000000       0.00000000       0.00000000          1
H         4.16872950       7.44644020       4.33366630         0.00000000       0.00000000       0.00000000          1
H         7.22553946       7.07339891       1.85873981         0.00000000       0.00000000       0.00000000          1
H         5.00611038       8.76266293       2.01620822         0.00000000       0.00000000       0.00000000          1
H         6.38816162       5.75717599       4.17619374         0.00000000       0.00000000       0.00000000          1
H         6.74049601       8.52842996       4.19366673         0.00000000       0.00000000       0.00000000          1
6
pbc=[F, F, F] list_num_par=6 energy=-1.26974174 iter=20000 frozen=false Lattice="15.00000000 0.00000000 0.00000000 0.00000000 15.00000000 0.00000000 0.00000000 0.00000000 15.00000000" energy_frozen_part=0.00000000 Properties=species:S:1:pos:R:3:velocities:R:3:Z:I:1
H         4.65373486       5.99140121       1.99866688         0.00000000       0.00000000       0.00000000          1
H         4.16880357       7.44625812       4.33372874         0.00000000       0.00000000       0.00000000          1
H         7.22550674       7.07337490       1.85863981         0.00000000       0.00000000       0.00000000          1
H         5.00610023       8.76264108       2.01632872         0.00000000       0.00000000       0.00000000          1
H         6.38821104       5.75698733       4.17603841         0.00000000       0.00000000       0.00000000          1
H         6.74057410       8.52823618       4.19369885         0.00000000       0.00000000       0.00000000          1
6
pbc=[F, F, F] list_num_par=6 energy=-1.26974174 iter=20000 frozen=false Lattice="15.00000000 0.00000000 0.00000000 0.00000000 15.00000000 0.00000000 0.00000000 0.00000000 15.00000000" energy_frozen_part=0.00000000 Properties=species:S:1:pos:R:3:velocities:R:3:Z:I:1
H         4.64237509       5.95106119       2.03219101         0.00000000       0.00000000       0.00000000          1
H         4.15446139       7.40198775       4.36907546         0.00000000       0.00000000       0.00000000          1
H         7.20474919       7.05382951       1.88248763         0.00000000       0.00000000       0.00000000          1
H         4.97233104       8.72507054       2.04854961         0.00000000       0.00000000       0.00000000          1
H         6.38687397       5.73074596       4.20301150         0.00000000       0.00000000       0.00000000          1
H         6.71683580       8.50476229       4.21936399         0.00000000       0.00000000       0.00000000          1
6
pbc=[F, F, F] list_num_par=6 energy=-1.26974174 iter=20000 frozen=false Lattice="15.00000000 0.00000000 0.00000000 0.00000000 15.00000000 0.00000000 0.00000000 0.00000000 15.00000000" energy_frozen_part=0.00000000 Properties=species:S:1:pos:R:3:velocities:R:3:Z:I:1
H         4.65377218       5.99143250       1.99860082         0.00000000       0.00000000       0.00000000          1
H         4.16874799       7.44618616       4.33371438         0.00000000       0.00000000       0.00000000          1
H         7.22550891       7.07350256       1.85865295         0.00000000       0.00000000       0.00000000          1
H         5.00604187       8.76269062       2.01637968         0.00000000       0.00000000       0.00000000          1
H         6.38821239       5.75699294       4.17598645         0.00000000       0.00000000       0.00000000          1
H         6.74048322       8.52825382       4.19376602         0.00000000       0.00000000       0.00000000          1
6
pbc=[F, F, F] list_num_par=6 energy=-1.26974174 iter=20000 frozen=false Lattice="15.00000000 0.00000000 0.00000000 0.00000000 15.00000000 0.00000000 0.00000000 0.00000000 15.00000000" energy_frozen_part=0.00000000 Properties=species:S:1:pos:R:3:velocities:R:3:Z:I:1
H         4.65378704       5.99141358       1.99861394         0.00000000       0.00000000       0.00000000          1
H         4.16876068       7.44617741       4.33371145         0.00000000       0.00000000       0.00000000          1
H         7.22551700       7.07350002       1.85866323         0.00000000       0.00000000       0.00000000          1
H         5.00603850       8.76267644       2.01637330         0.00000000       0.00000000       0.00000000          1
H         6.38823887       5.75700162       4.17600842         0.00000000       0.00000000       0.00000000          1
H         6.74049283       8.52826279       4.19375960         0.00000000       0.00000000       0.00000000          1
6
pbc=[F, F, F] list_num_par=6 energy=-1.26974174 iter=20000 frozen=false Lattice="15.00000000 0.00000000 0.00000000 0.00000000 15.00000000 0.00000000 0.00000000 0.00000000 15.00000000" energy_frozen_part=0.00000000 Properties=species:S:1:pos:R:3:velocities:R:3:Z:I:1
H         4.65376274       5.99140941       1.99874247         0.00000000       0.00000000       0.00000000          1
H         4.16870161       7.44643521       4.33367340         0.00000000       0.00000000       0.00000000          1
H         7.22552347       7.07342571       1.85874803         0.00000000       0.00000000       0.00000000          1
H         5.00607137       8.76266396       2.01621098         0.00000000       0.00000000       0.00000000          1
H         6.38814208       5.75718874       4.17620614         0.00000000       0.00000000       0.00000000          1
H         6.74045861       8.52844331       4.19367401         0.00000000       0.00000000       0.00000000          1
6
pbc=[F, F, F] list_num_par=6 energy=-1.26974174 iter=20000 frozen=false Lattice="15.00000000 0.00000000 0.00000000 0.00000000 15.00000000 0.00000000 0.00000000 0.00000000 15.00000000" energy_frozen_part=0.00000000 Properties=species:S:1:pos:R:3:velocities:R:3:Z:I:1
H         4.65381633       5.99137049       1.99866431         0.00000000       0.00000000       0.00000000          1
H         4.16880337       7.44615217       4.33376664         0.00000000       0.00000000       0.00000000          1
H         7.22555516       7.07343679       1.85870262         0.00000000       0.00000000       0.00000000          1
H         5.00608622       8.76263250       2.01641722         0.00000000       0.00000000       0.00000000          1
H         6.38826609       5.75695008       4.17604924         0.00000000       0.00000000       0.00000000          1
H         6.74054329       8.52820624       4.19380075         0.00000000       0.00000000       0.00000000          1
6
pbc=[F, F, F] list_num_par=6 energy=-1.26974174 iter=20000 frozen=false Lattice="15.00000000 0.00000000 0.00000000 0.00000000 15.00000000 0.00000000 0.00000000 0.00000000 15.00000000" energy_frozen_part=0.00000000 Properties=species:S:1:pos:R:3:velocities:R:3:Z:I:1
H         4.65376990       5.99140769       1.99873938         0.00000000       0.00000000       0.00000000          1
H         4.16871148       7.44642563       4.33367340         0.00000000       0.00000000       0.00000000          1
H         7.22552532       7.07341903       1.85874509         0.00000000       0.00000000       0.00000000          1
H         5.00608600       8.76266282       2.01621528         0.00000000       0.00000000       0.00000000          1
H         6.38815478       5.75718453       4.17620485         0.00000000       0.00000000       0.00000000          1
H         6.74047141       8.52843561       4.19368068         0.00000000       0.00000000       0.00000000          1
6
pbc=[F, F, F] list_num_par=6 energy=-1.26974174 iter=20000 frozen=false Lattice="15.00000000 0.00000000 0.00000000 0.00000000 15.00000000 0.00000000 0.00000000 0.00000000 15.00000000" energy_frozen_part=0.00000000 Properties=species:S:1:pos:R:3:velocities:R:3:Z:I:1
H         4.65380809       5.99137600       1.99866661         0.00000000       0.00000000       0.00000000          1
H         4.16878425       7.44615528       4.33375798         0.00000000       0.00000000       0.00000000          1
H         7.22555198       7.07342803       1.85871002         0.00000000       0.00000000       0.00000000          1
H         5.00608369       8.76263130       2.01640777         0.00000000       0.00000000       0.00000000          1
H         6.38824686       5.75695980       4.17606544         0.00000000       0.00000000       0.00000000          1
H         6.74052940       8.52821430       4.19380018         0.00000000       0.00000000       0.00000000          1
6
pbc=[F, F, F] list_num_par=6 energy=-1.26974174 iter=20000 frozen=false Lattice="15.00000000 0.00000000 0.00000000 0.00000000 15.00000000 0.00000000 0.00000000 0.00000000 15.00000000" energy_frozen_part=0.00000000 Properties=species:S:1:pos:R:3:velocities:R:3:Z:I:1
H         4.65381239       5.99137703       1.99866828         0.00000000       0.00000000       0.00000000          1
H         4.16881193       7.44614560       4.33377346         0.00000000       0.00000000       0.00000000          1
H         7.22555610       7.07343782       1.85870690         0.00000000       0.00000000       0.00000000          1
H         5.00609934       8.76263433       2.01642851         0.00000000       0.00000000       0.00000000          1
H         6.38827079       5.75693811       4.17604465         0.00000000       0.00000000       0.00000000          1
H         6.74055021       8.52819680       4.19381058         0.00000000       0.00000000       0.00000000          1
6
pbc=[F, F, F] list_num_par=6 energy=-1.26974174 iter=20000 frozen=false Lattice="15.00000000 0.00000000 0.00000000 0.00000000 15.00000000 0.00000000 0.00000000 0.00000000 15.00000000" energy_frozen_part=0.00000000 Properties=species:S:1:pos:R:3:velocities:R:3:Z:I:1
H         4.65381449       5.99131411       1.99862557         0.00000000       0.00000000       0.00000000          1
H         4.16874962       7.44615401       4.33367397         0.00000000       0.00000000       0.00000000          1
H         7.22553118       7.07343328       1.85865726         0.00000000       0.00000000       0.00000000          1
H         5.00602819       8.76258269       2.01628801         0.00000000       0.00000000       0.00000000          1
H         6.38825233       5.75700882       4.17604158         0.00000000       0.00000000       0.00000000          1
H         6.74046041       8.52827768       4.19370326         0.00000000       0.00000000       0.00000000          1
6
pbc=[F, F, F] list_num_par=6 energy=-1.26974174 iter=20000 frozen=false Lattice="15.00000000 0.00000000 0.00000000 0.00000000 15.00000000 0.00000000 0.00000000 0.00000000 15.00000000" energy_frozen_part=0.00000000 Properties=species:S:1:pos:R:3:velocities:R:3:Z:I:1
H         4.65393114       5.99136687       1.99861419         0.00000000       0.00000000       0.00000000          1
H         4.16880255       7.44631315       4.33357843         0.00000000       0.00000000       0.00000000          1