6
pbc=[F, F, F] list_num_par=6 frozen=false iter=20000 energy=-1.26974174 Lattice="15.00000000 0.00000000 0.00000000 0.00000000 15.00000000 0.00000000 0.00000000 0.00000000 15.00000000" energy_frozen_part=0.00000000 Properties=species:S:1:pos:R:3:velocities:R:3:Z:I:1
H        10.92569528       0.84369564       4.71559947         0.00000000       0.00000000       0.00000000          1
H        13.27176509       1.88116909       5.82189080         0.00000000       0.00000000       0.00000000          1
H         9.99641019       3.43745111       4.25389857         0.00000000       0.00000000       0.00000000          1
H        10.78654314       2.67326515       6.82216413         0.00000000       0.00000000       0.00000000          1
H        12.48163009       2.64535394       3.25362036         0.00000000       0.00000000       0.00000000          1
H        12.34248521       4.47492462       5.36018369         0.00000000       0.00000000       0.00000000          1
6
pbc=[F, F, F] list_num_par=6 frozen=false iter=20000 energy=-1.26974174 Lattice="15.00000000 0.00000000 0.00000000 0.00000000 15.00000000 0.00000000 0.00000000 0.00000000 15.00000000" energy_frozen_part=0.00000000 Properties=species:S:1:pos:R:3:velocities:R:3:Z:I:1
H        10.91841203       0.83453761       4.73415750         0.00000000       0.00000000       0.00000000          1
H        13.27100501       1.87214928       5.82637317         0.00000000       0.00000000       0.00000000          1
H         9.99629000       3.42797769       4.25660013         0.00000000       0.00000000       0.00000000          1
H        10.79124947       2.67951819       6.82800130         0.00000000       0.00000000       0.00000000          1
H        12.47604923       2.62061227       3.25496916         0.00000000       0.00000000       0.00000000          1
H        12.34888696       4.46558908       5.34881485         0.00000000       0.00000000       0.00000000          1
6
pbc=[F, F, F] list_num_par=6 frozen=false iter=20000 energy=-1.26974174 Lattice="15.00000000 0.00000000 0.00000000 0.00000000 15.00000000 0.00000000 0.00000000 0.00000000 15.00000000" energy_frozen_part=0.00000000 Properties=species:S:1:pos:R:3:velocities:R:3:Z:I:1
H        10.91842450       0.83455187       4.73418088         0.00000000       0.00000000       0.00000000          1
H        13.27101853       1.87217134       5.82639741         0.00000000       0.00000000       0.00000000          1
H         9.99630378       3.42798754       4.25661164         0.00000000       0.00000000       0.00000000          1
H        10.79126003       2.67953171       6.82801515         0.00000000       0.00000000       0.00000000          1
H        12.47606621       2.62062855       3.25499267         0.00000000       0.00000000       0.00000000          1
H        12.34889697       4.46560847       5.34883001         0.00000000       0.00000000       0.00000000          1
6
pbc=[F, F, F] list_num_par=6 frozen=false iter=20000 energy=-1.26974174 Lattice="15.00000000 0.00000000 0.00000000 0.00000000 15.00000000 0.00000000 0.00000000 0.00000000 15.00000000" energy_frozen_part=0.00000000 Properties=species:S:1:pos:R:3:velocities:R:3:Z:I:1
H        10.92574587       0.84370806       4.71558665         0.00000000       0.00000000       0.00000000          1
H        13.27180192       1.88117645       5.82191634         0.00000000       0.00000000       0.00000000          1
H         9.99644869       3.43746244       4.25391840         0.00000000       0.00000000       0.00000000          1
H        10.78656058       2.67323479       6.82217973         0.00000000       0.00000000       0.00000000          1
H        12.48168311       2.64540008       3.25365203         0.00000000       0.00000000       0.00000000          1
H        12.34250627       4.47492576       5.36024319         0.00000000       0.00000000       0.00000000          1
6
pbc=[F, F, F] list_num_par=6 frozen=false iter=20000 energy=-1.26974174 Lattice="15.00000000 0.00000000 0.00000000 0.00000000 15.00000000 0.00000000 0.00000000 0.00000000 15.00000000" energy_frozen_part=0.00000000 Properties=species:S:1:pos:R:3:velocities:R:3:Z:I:1
H        10.91840426       0.83453929       4.73416693         0.00000000       0.00000000       0.00000000          1
H        13.27100247       1.87214534       5.82637511         0.00000000       0.00000000       0.00000000          1
H         9.99628496       3.42797783       4.25660768         0.00000000       0.00000000       0.00000000          1
H        10.79124924       2.67952149       6.82801381         0.00000000       0.00000000       0.00000000          1
H        12.47603519       2.62061070       3.25497262         0.00000000       0.00000000       0.00000000          1
H        12.34888499       4.46558427       5.34881538         0.00000000       0.00000000       0.00000000          1
6
pbc=[F, F, F] list_num_par=6 frozen=false iter=20000 energy=-1.26974174 Lattice="15.00000000 0.00000000 0.00000000 0.00000000 15.00000000 0.00000000 0.00000000 0.00000000 15.00000000" energy_frozen_part=0.00000000 Properties=species:S:1:pos:R:3:velocities:R:3:Z:I:1
H        10.91842448       0.83457257       4.73401251         0.00000000       0.00000000       0.00000000          1
H        13.27099759       1.87211662       5.82634200         0.00000000       0.00000000       0.00000000          1
H         9.99629522       3.42803303       4.25663154         0.00000000       0.00000000       0.00000000          1
H        10.79121774       2.67938857       6.82799746         0.00000000       0.00000000       0.00000000          1
H        12.47607349       2.62076367       3.25498033         0.00000000       0.00000000       0.00000000          1
H        12.34886115       4.46558414       5.34896205         0.00000000       0.00000000       0.00000000          1
6
pbc=[F, F, F] list_num_par=6 frozen=false iter=20000 energy=-1.26974174 Lattice="15.00000000 0.00000000 0.00000000 0.00000000 15.00000000 0.00000000 0.00000000 0.00000000 15.00000000" energy_frozen_part=0.00000000 Properties=species:S:1:pos:R:3:velocities:R:3:Z:I:1
H        10.92569837       0.84372083       4.71559630         0.00000000       0.00000000       0.00000000          1
H        13.27176683       1.88119269       5.82188569         0.00000000       0.00000000       0.00000000          1
H         9.99640903       3.43747220       4.25390767         0.00000000       0.00000000       0.00000000          1
H        10.78654366       2.67327886       6.82216719         0.00000000       0.00000000       0.00000000          1
H        12.48162449       2.64538830       3.25362671         0.00000000       0.00000000       0.00000000          1
H        12.34247749       4.47494763       5.36020132         0.00000000       0.00000000       0.00000000          1
6
pbc=[F, F, F] list_num_par=6 frozen=false iter=20000 energy=-1.26974174 Lattice="15.00000000 0.00000000 0.00000000 0.00000000 15.00000000 0.00000000 0.00000000 0.00000000 15.00000000" energy_frozen_part=0.00000000 Properties=species:S:1:pos:R:3:velocities:R:3:Z:I:1
H        10.92568926       0.84369806       4.71558288         0.00000000       0.00000000       0.00000000          1
H        13.27175594       1.88117035       5.82188822         0.00000000       0.00000000       0.00000000          1
H         9.99640051       3.43744704       4.25389396         0.00000000       0.00000000       0.00000000          1
H        10.78652736       2.67324309       6.82215760         0.00000000       0.00000000       0.00000000          1
H        12.48162319       2.64537004       3.25362208         0.00000000       0.00000000       0.00000000          1
H        12.34246466       4.47492067       5.36019562         0.00000000       0.00000000       0.00000000          1
6
pbc=[F, F, F] list_num_par=6 frozen=false iter=20000 energy=-1.26974174 Lattice="15.00000000 0.00000000 0.00000000 0.00000000 15.00000000 0.00000000 0.00000000 0.00000000 15.00000000" energy_frozen_part=0.00000000 Properties=species:S:1:pos:R:3:velocities:R:3:Z:I:1
H        10.92584021       0.84369863       4.71566858         0.00000000       0.00000000       0.00000000          1
H        13.27182357       1.88135620       5.82197515         0.00000000       0.00000000       0.00000000          1
H         9.99642479       3.43738193       4.25382124         0.00000000       0.00000000       0.00000000          1
H        10.78653205       2.67336283       6.82214241         0.00000000       0.00000000       0.00000000          1
H        12.48171773       2.64537522       3.25364690         0.00000000       0.00000000       0.00000000          1
H        12.34241625       4.47503247       5.36012132         0.00000000       0.00000000       0.00000000          1
6
pbc=[F, F, F] list_num_par=6 frozen=false iter=20000 energy=-1.26974174 Lattice="15.00000000 0.00000000 0.00000000 0.00000000 15.00000000 0.00000000 0.00000000 0.00000000 15.00000000" energy_frozen_part=0.00000000 Properties=species:S:1:pos:R:3:velocities:R:3:Z:I:1
H        10.92569580       0.84371975       4.71559172         0.00000000       0.00000000       0.00000000          1
H        13.27176541       1.88120117       5.82187742         0.00000000       0.00000000       0.00000000          1
H         9.99638257       3.43746655       4.25389804         0.00000000       0.00000000       0.00000000          1
H        10.78653911       2.67327779       6.82216097         0.00000000       0.00000000       0.00000000          1
H        12.48161098       2.64539067       3.25361485         0.00000000       0.00000000       0.00000000          1
H        12.34245693       4.47494616       5.36018343         0.00000000       0.00000000       0.00000000          1
6
pbc=[F, F, F] list_num_par=6 frozen=false iter=20000 energy=-1.26974174 Lattice="15.00000000 0.00000000 0.00000000 0.00000000 15.00000000 0.00000000 0.00000000 0.00000000 15.00000000" energy_frozen_part=0.00000000 Properties=species:S:1:pos:R:3:velocities:R:3:Z:I:1
H        10.92569436       0.84371309       4.71558984         0.00000000       0.00000000       0.00000000          1
H        13.27176485       1.88118747       5.82188780         0.00000000       0.00000000       0.00000000          1
H         9.99640306       3.43747118       4.25390559         0.00000000       0.00000000       0.00000000          1
H        10.78654022       2.67327287       6.82216485         0.00000000       0.00000000       0.00000000          1
H        12.48162148       2.64538406       3.25362790         0.00000000       0.00000000       0.00000000          1
H        12.34247804       4.47494037       5.36020102         0.00000000       0.00000000       0.00000000          1
6
pbc=[F, F, F] list_num_par=6 frozen=false iter=20000 energy=-1.26974174 Lattice="15.00000000 0.00000000 0.00000000 0.00000000 15.00000000 0.00000000 0.00000000 0.00000000 15.00000000" energy_frozen_part=0.00000000 Properties=species:S:1:pos:R:3:velocities:R:3:Z:I:1
H        10.91840907       0.83455591       4.73402773         0.00000000       0.00000000       0.00000000          1
H        13.27098510       1.87210380       5.82634879         0.00000000       0.00000000       0.00000000          1
H         9.99627708       3.42802163       4.25663742         0.00000000       0.00000000       0.00000000          1
H        10.79121442       2.67939079       6.82799565         0.00000000       0.00000000       0.00000000          1
H        12.47605032       2.62074156       3.25498241         0.00000000       0.00000000       0.00000000          1
H        12.34886370       4.46557182       5.34894809         0.00000000       0.00000000       0.00000000          1
6
pbc=[F, F, F] list_num_par=6 frozen=false iter=20000 energy=-1.26974174 Lattice="15.00000000 0.00000000 0.00000000 0.00000000 15.00000000 0.00000000 0.00000000 0.00000000 15.00000000" energy_frozen_part=0.00000000 Properties=species:S:1:pos:R:3:velocities:R:3:Z:I:1
H        10.99691429       0.92398394       4.55388895         0.00000000       0.00000000       0.00000000          1
H        13.34733414       1.89896433       5.70680198         0.00000000       0.00000000       0.00000000          1
H        10.07092101       3.53964907       4.22969038         0.00000000       0.00000000       0.00000000          1
H        10.86581912       2.64196230       6.75289742         0.00000000       0.00000000       0.00000000          1
H        12.55244204       2.79666242       3.18359582         0.00000000       0.00000000       0.00000000          1
H        12.42134524       4.51463550       5.38260010         0.00000000       0.00000000       0.00000000          1
6
pbc=[F, F, F] list_num_par=6 frozen=false iter=20000 energy=-1.26974174 Lattice="15.00000000 0.00000000 0.00000000 0.00000000 15.00000000 0.00000000 0.00000000 0.00000000 15.00000000" energy_frozen_part=0.00000000 Properties=species:S:1:pos:R:3:velocities:R:3:Z:I:1
H        10.99684774       0.92394973       4.55389183         0.00000000       0.00000000       0.00000000          1
H        13.34735841       1.89898334       5.70659329         0.00000000       0.00000000       0.00000000          1
H        10.07088566       3.53961229       4.22955684         0.00000000       0.00000000       0.00000000          1
H        10.86591571       2.64210191       6.75278333         0.00000000       0.00000000       0.00000000          1
H        12.55232514       2.79649060       3.18336339         0.00000000       0.00000000       0.00000000          1
H        12.42139362       4.51464465       5.38225262         0.00000000       0.00000000       0.00000000          1
6
pbc=[F, F, F] list_num_par=6 frozen=false iter=20000 energy=-1.26974174 Lattice="15.00000000 0.00000000 0.00000000 0.00000000 15.00000000 0.00000000 0.00000000 0.00000000 15.00000000" energy_frozen_part=0.00000000 Properties=species:S:1:pos:R:3:velocities:R:3:Z:I:1
H        10.91838525       0.83459931       4.73402146         0.00000000       0.00000000       0.00000000          1
H        13.27097609       1.87211128       5.82635202         0.00000000       0.00000000       0.00000000          1
H         9.99630459       3.42807635       4.25661293         0.00000000       0.00000000       0.00000000          1
H        10.79120973       2.67943184       6.82798508         0.00000000       0.00000000       0.00000000          1
H        12.47607470       2.62075629       3.25498130         0.00000000       0.00000000       0.00000000          1
H        12.34888738       4.46559244       5.34895179         0.00000000       0.00000000       0.00000000          1
6
pbc=[F, F, F] list_num_par=6 frozen=false iter=20000 energy=-1.26974174 Lattice="15.00000000 0.00000000 0.00000000 0.00000000 15.00000000 0.00000000 0.00000000 0.00000000 15.00000000" energy_frozen_part=0.00000000 Properties=species:S:1:pos:R:3:velocities:R:3:Z:I:1
H        10.92568644       0.84369452       4.71561232         0.00000000       0.00000000       0.00000000          1
H        13.27175354       1.88116763       5.82191128         0.00000000       0.00000000       0.00000000          1
H         9.99641626       3.43745037       4.25389490         0.00000000       0.00000000       0.00000000          1
H        10.78653028       2.67326796       6.82217055         0.00000000       0.00000000       0.00000000          1
H        12.48164222       2.64534898       3.25363957         0.00000000       0.00000000       0.00000000          1
H        12.34247739       4.47492263       5.36019732         0.00000000       0.00000000       0.00000000          1
6
pbc=[F, F, F] list_num_par=6 frozen=false iter=20000 energy=-1.26974174 Lattice="15.00000000 0.00000000 0.00000000 0.00000000 15.00000000 0.00000000 0.00000000 0.00000000 15.00000000" energy_frozen_part=0.00000000 Properties=species:S:1:pos:R:3:velocities:R:3:Z:I:1
H        10.92570297       0.84370501       4.71559446         0.00000000       0.00000000       0.00000000          1
H        13.27177086       1.88118680       5.82188935         0.00000000       0.00000000       0.00000000          1
H         9.99643140       3.43745702       4.25385701         0.00000000       0.00000000       0.00000000          1
H        10.78654218       2.67329103       6.82214061         0.00000000       0.00000000       0.00000000          1
H        12.48165626       2.64534453       3.25361127         0.00000000       0.00000000       0.00000000          1
H        12.34249497       4.47492966       5.36015344         0.00000000       0.00000000       0.00000000          1
6
pbc=[F, F, F] list_num_par=6 frozen=false iter=20000 energy=-1.26974174 Lattice="15.00000000 0.00000000 0.00000000 0.00000000 15.00000000 0.00000000 0.00000000 0.00000000 15.00000000" energy_frozen_part=0.00000000 Properties=species:S:1:pos:R:3:velocities:R:3:Z:I:1
H        10.99687001       0.92393871       4.55388060         0.00000000       0.00000000       0.00000000          1
H        13.34735520       1.89899464       5.70659842         0.00000000       0.00000000       0.00000000          1
H        10.07087671       3.53958487       4.22954210         0.00000000       0.00000000       0.00000000          1
H        10.86590352       2.64208279       6.75277107         0.00000000       0.00000000       0.00000000          1
H        12.55233404       2.79650724       3.18336472         0.00000000       0.00000000       0.00000000          1
H        12.42136533       4.51465091       5.38225198         0.00000000       0.00000000       0.00000000          1
6
pbc=[F, F, F] list_num_par=6 frozen=false iter=20000 energy=-1.26974174 Lattice="15.00000000 0.00000000 0.00000000 0.00000000 15.00000000 0.00000000 0.00000000 0.00000000 15.00000000" energy_frozen_part=0.00000000 Properties=species:S:1:pos:R:3:velocities:R:3:Z:I:1
H        10.91841491       0.83455798       4.73403187         0.00000000       0.00000000       0.00000000          1
H        13.27099137       1.87210117       5.82636117         0.00000000       0.00000000       0.00000000          1
H         9.99629892       3.42802582       4.25662463         0.00000000       0.00000000       0.00000000          1
H        10.79120805       2.67939107       6.82799449         0.00000000       0.00000000       0.00000000          1
H        12.47607652       2.62073608       3.25499549         0.00000000       0.00000000       0.00000000          1
H        12.34886533       4.46557070       5.34896448         0.00000000       0.00000000       0.00000000          1
6
pbc=[F, F, F] list_num_par=6 frozen=false iter=20000 energy=-1.26974174 Lattice="15.00000000 0.00000000 0.00000000 0.00000000 15.00000000 0.00000000 0.00000000 0.00000000 15.00000000" energy_frozen_part=0.00000000 Properties=species:S:1:pos:R:3:velocities:R:3:Z:I:1
H        10.92584119       0.84369072       4.71567622         0.00000000       0.00000000       0.00000000          1
H        13.27182454       1.88134957       5.82197568         0.00000000       0.00000000       0.00000000          1
H         9.99642322       3.43736660       4.25380663         0.00000000       0.00000000       0.00000000          1
H        10.78653514       2.67335876       6.82213558         0.00000000       0.00000000       0.00000000          1
H        12.48171734       2.64535283       3.25364203         0.00000000       0.00000000       0.00000000          1
H        12.34241406       4.47502212       5.36010670         0.00000000       0.00000000       0.00000000          1
6
pbc=[F, F, F] list_num_par=6 frozen=false iter=20000 energy=-1.26974174 Lattice="15.00000000 0.00000000 0.00000000 0.00000000 15.00000000 0.00000000 0.00000000 0.00000000 15.00000000" energy_frozen_part=0.00000000 Properties=species:S:1:pos:R:3:velocities:R:3:Z:I:1
H        10.99678350       0.92396923       4.55384624         0.00000000       0.00000000       0.00000000          1
H        13.34731825       1.89896393       5.70651059         0.00000000       0.00000000       0.00000000          1
H        10.07085772       3.53964088       4.22950625         0.00000000       0.00000000       0.00000000          1
H        10.86589764       2.64212382       6.75273437         0.00000000       0.00000000       0.00000000          1
H        12.55227420       2.79648252       3.18329237         0.00000000       0.00000000       0.00000000          1
H        12.42138894       4.51463845       5.38217931         0.00000000       0.00000000       0.00000000          1
6
pbc=[F, F, F] list_num_par=6 frozen=false iter=20000 energy=-1.26974174 Lattice="15.00000000 0.00000000 0.00000000 0.00000000 15.00000000 0.00000000 0.00000000 0.00000000 15.00000000" energy_frozen_part=0.00000000 Properties=species:S:1:pos:R:3:velocities:R:3:Z:I:1
H        10.92567314       0.84372242       4.71575345         0.00000000       0.00000000       0.00000000          1
H        13.27176134       1.88139280       5.82182469         0.00000000       0.00000000       0.00000000          1
H         9.99622373       3.43738844       4.25393238         0.00000000       0.00000000       0.00000000          1
H        10.78655956       2.67342051       6.82220589         0.00000000       0.00000000       0.00000000          1
H        12.48142371       2.64536421       3.25355366         0.00000000       0.00000000       0.00000000          1
H        12.34230763       4.47506446       5.36001057         0.00000000       0.00000000       0.00000000          1
6
pbc=[F, F, F] list_num_par=6 frozen=false iter=20000 energy=-1.26974174 Lattice="15.00000000 0.00000000 0.00000000 0.00000000 15.00000000 0.00000000 0.00000000 0.00000000 15.00000000" energy_frozen_part=0.00000000 Properties=species:S:1:pos:R:3:velocities:R:3:Z:I:1
H        10.99676939       0.92393740       4.55387876         0.00000000       0.00000000       0.00000000          1
H        13.34728531       1.89891088       5.70660464         0.00000000       0.00000000       0.00000000          1
H        10.07088465       3.53961772       4.22949585         0.00000000       0.00000000       0.00000000          1
H        10.86584645       2.64209877       6.75275232         0.00000000       0.00000000       0.00000000          1
H        12.55232298       2.79642457       3.18335685         0.00000000       0.00000000       0.00000000          1
H        12.42139366       4.51459216       5.38223315         0.00000000       0.00000000       0.00000000          1
6
pbc=[F, F, F] list_num_par=6 frozen=false iter=20000 energy=-1.26974174 Lattice="15.00000000 0.00000000 0.00000000 0.00000000 15.00000000 0.00000000 0.00000000 0.00000000 15.00000000" energy_frozen_part=0.00000000 Properties=species:S:1:pos:R:3:velocities:R:3:Z:I:1
H        10.92583156       0.84369108       4.71564908         0.00000000       0.00000000       0.00000000          1
H        13.27180612       1.88134171       5.82196467         0.00000000       0.00000000       0.00000000          1
H         9.99641143       3.43736435       4.25379349         0.00000000       0.00000000       0.00000000          1
H        10.78651381       2.67335105       6.82212090         0.00000000       0.00000000       0.00000000          1
H        12.48171246       2.64536549       3.25363696         0.00000000       0.00000000       0.00000000          1
H        12.34239382       4.47502336       5.36010334         0.00000000       0.00000000       0.00000000          1
6
pbc=[F, F, F] list_num_par=6 frozen=false iter=20000 energy=-1.26974174 Lattice="15.00000000 0.00000000 0.00000000 0.00000000 15.00000000 0.00000000 0.00000000 0.00000000 15.00000000" energy_frozen_part=0.00000000 Properties=species:S:1:pos:R:3:velocities:R:3:Z:I:1
H        10.91838621       0.83459482       4.73403177         0.00000000       0.00000000       0.00000000          1
H        13.27097593       1.87210178       5.82635065         0.00000000       0.00000000       0.00000000          1
H         9.99631120       3.42807372       4.25660473         0.00000000       0.00000000       0.00000000          1
H        10.79120959       2.67944622       6.82798573         0.00000000       0.00000000       0.00000000          1
H        12.47607390       2.62073428       3.25497458         0.00000000       0.00000000       0.00000000          1
H        12.34889881       4.46558207       5.34893022         0.00000000       0.00000000       0.00000000          1
6
pbc=[F, F, F] list_num_par=6 frozen=false iter=20000 energy=-1.26974174 Lattice="15.00000000 0.00000000 0.00000000 0.00000000 15.00000000 0.00000000 0.00000000 0.00000000 15.00000000" energy_frozen_part=0.00000000 Properties=species:S:1:pos:R:3:velocities:R:3:Z:I:1
H        10.92568251       0.84371148       4.71559762         0.00000000       0.00000000       0.00000000          1
H        13.27175624       1.88116660       5.82190009         0.00000000       0.00000000       0.00000000          1
H         9.99641071       3.43746849       4.25390358         0.00000000       0.00000000       0.00000000          1
H        10.78653025       2.67326242       6.82216671         0.00000000       0.00000000       0.00000000          1
H        12.48163454       2.64536902       3.25364062         0.00000000       0.00000000       0.00000000          1
H        12.34247805       4.47492391       5.36021053         0.00000000       0.00000000       0.00000000          1
6
pbc=[F, F, F] list_num_par=6 frozen=false iter=20000 energy=-1.26974174 Lattice="15.00000000 0.00000000 0.00000000 0.00000000 15.00000000 0.00000000 0.00000000 0.00000000 15.00000000" energy_frozen_part=0.00000000 Properties=species:S:1:pos:R:3:velocities:R:3:Z:I:1
H        10.99686838       0.92396829       4.55385598         0.00000000       0.00000000       0.00000000          1
H        13.34732524       1.89889426       5.70675399         0.00000000       0.00000000       0.00000000          1
H        10.07093694       3.53966242       4.22969099         0.00000000       0.00000000       0.00000000          1
H        10.86583900       2.64193922       6.75288648         0.00000000       0.00000000       0.00000000          1
H        12.55242242       2.79661896       3.18355814         0.00000000       0.00000000       0.00000000          1
H        12.42139107       4.51458624       5.38257956         0.00000000       0.00000000       0.00000000          1
6
pbc=[F, F, F] list_num_par=6 frozen=false iter=20000 energy=-1.26974174 Lattice="15.00000000 0.00000000 0.00000000 0.00000000 15.00000000 0.00000000 0.00000000 0.00000000 15.00000000" energy_frozen_part=0.00000000 Properties=species:S:1:pos:R:3:velocities:R:3:Z:I:1
H        10.91840872       0.83454996       4.73414955         0.00000000       0.00000000       0.00000000          1
H        13.27101036       1.87215806       5.82637275         0.00000000       0.00000000       0.00000000          1
H         9.99629207       3.42798944       4.25660735         0.00000000       0.00000000       0.00000000          1
H        10.79126066       2.67951240       6.82800689         0.00000000       0.00000000       0.00000000          1
H        12.47604765       2.62062634       3.25497020         0.00000000       0.00000000       0.00000000          1
H        12.34888853       4.46559658       5.34882042         0.00000000       0.00000000       0.00000000          1
6
pbc=[F, F, F] list_num_par=6 frozen=false iter=20000 energy=-1.26974174 Lattice="15.00000000 0.00000000 0.00000000 0.00000000 15.00000000 0.00000000 0.00000000 0.00000000 15.00000000" energy_frozen_part=0.00000000 Properties=species:S:1:pos:R:3:velocities:R:3:Z:I:1
H        10.91840717       0.83457480       4.73403911         0.00000000       0.00000000       0.00000000          1
H        13.27098527       1.87210938       5.82635869         0.00000000       0.00000000       0.00000000          1
H         9.99630101       3.42804482       4.25663203         0.00000000       0.00000000       0.00000000          1
H        10.79121421       2.67941908       6.82800335         0.00000000       0.00000000       0.00000000          1
H        12.47606987       2.62074608       3.25498749         0.00000000       0.00000000       0.00000000          1
H        12.34888109       4.46558054       5.34895622         0.00000000       0.00000000       0.00000000          1
6
pbc=[F, F, F] list_num_par=6 frozen=false iter=20000 energy=-1.26974174 Lattice="15.00000000 0.00000000 0.00000000 0.00000000 15.00000000 0.00000000 0.00000000 0.00000000 15.00000000" energy_frozen_part=0.00000000 Properties=species:S:1:pos:R:3:velocities:R:3:Z:I:1
H        10.92566613       0.84372577       4.71574738         0.00000000       0.00000000       0.00000000          1
H        13.27174652       1.88140037       5.82183114         0.00000000       0.00000000       0.00000000          1
H         9.99621342       3.43739606       4.25392003         0.00000000       0.00000000       0.00000000          1
H        10.78653414       2.67342878       6.82219339         0.00000000       0.00000000       0.00000000          1
H        12.48141445       2.64536873       3.25356036         0.00000000       0.00000000       0.00000000          1
H        12.34229414       4.47507179       5.36000923         0.00000000       0.00000000       0.00000000          1
6
pbc=[F, F, F] list_num_par=6 frozen=false iter=20000 energy=-1.26974174 Lattice="15.00000000 0.00000000 0.00000000 0.00000000 15.00000000 0.00000000 0.00000000 0.00000000 15.00000000" energy_frozen_part=0.00000000 Properties=species:S:1:pos:R:3:velocities:R:3:Z:I:1
H        10.91838995       0.83459706       4.73401582         0.00000000       0.00000000       0.00000000          1
H        13.27097442       1.87211790       5.82635055         0.00000000       0.00000000       0.00000000          1