6
pbc=[F, F, F] list_num_par=6 energy=-1.26974174 iter=20000 frozen=false Lattice="15.00000000 0.00000000 0.00000000 0.00000000 15.00000000 0.00000000 0.00000000 0.00000000 15.00000000" energy_frozen_part=0.00000000 Properties=species:S:1:pos:R:3:velocities:R:3:Z:I:1
H         4.96438489       6.48572861       7.99003100         0.00000000       0.00000000       0.00000000          1
H         3.32500072       2.90270166       7.70220259         0.00000000       0.00000000       0.00000000          1
H         5.58981724       3.94320715       8.96404723         0.00000000       0.00000000       0.00000000          1
H         2.69957286       5.44521994       6.72818079         0.00000000       0.00000000       0.00000000          1
H         3.07610922       5.05282306       9.46835259         0.00000000       0.00000000       0.00000000          1
H         5.21328175       4.33560254       6.22387716         0.00000000       0.00000000       0.00000000          1
6
pbc=[F, F, F] list_num_par=6 energy=-1.26974174 iter=20000 frozen=false Lattice="15.00000000 0.00000000 0.00000000 0.00000000 15.00000000 0.00000000 0.00000000 0.00000000 15.00000000" energy_frozen_part=0.00000000 Properties=species:S:1:pos:R:3:velocities:R:3:Z:I:1
H         3.67155515       5.23297148       3.43023320         0.00000000       0.00000000       0.00000000          1
H         3.28739666       5.18537352       6.19689014         0.00000000       0.00000000       0.00000000          1
H         6.20974195       4.11455073       3.76341888         0.00000000       0.00000000       0.00000000          1
H         5.52777657       6.45981889       5.11948717         0.00000000       0.00000000       0.00000000          1
H         5.82558579       4.06694718       6.53008523         0.00000000       0.00000000       0.00000000          1
H         3.96937098       2.84010524       4.84082572         0.00000000       0.00000000       0.00000000          1
6
pbc=[F, F, F] list_num_par=6 energy=-1.26974174 iter=20000 frozen=false Lattice="15.00000000 0.00000000 0.00000000 0.00000000 15.00000000 0.00000000 0.00000000 0.00000000 15.00000000" energy_frozen_part=0.00000000 Properties=species:S:1:pos:R:3:velocities:R:3:Z:I:1
H         3.67155353       5.23303368       3.43037116         0.00000000       0.00000000       0.00000000          1
H         3.28749124       5.18536962       6.19705186         0.00000000       0.00000000       0.00000000          1
H         6.20975326       4.11461079       3.76345137         0.00000000       0.00000000       0.00000000          1
H         5.52781937       6.45984425       5.11958945         0.00000000       0.00000000       0.00000000          1
H         5.82569809       4.06695944       6.53013111         0.00000000       0.00000000       0.00000000          1
H         3.96942618       2.84013500       4.84091143         0.00000000       0.00000000       0.00000000          1
6
pbc=[F, F, F] list_num_par=6 energy=-1.26974174 iter=20000 frozen=false Lattice="15.00000000 0.00000000 0.00000000 0.00000000 15.00000000 0.00000000 0.00000000 0.00000000 15.00000000" energy_frozen_part=0.00000000 Properties=species:S:1:pos:R:3:velocities:R:3:Z:I:1
H         3.67153606       5.23297809       3.43023399         0.00000000       0.00000000       0.00000000          1
H         3.28740329       5.18534374       6.19690596         0.00000000       0.00000000       0.00000000          1
H         6.20974019       4.11458312       3.76338825         0.00000000       0.00000000       0.00000000          1
H         5.52775223       6.45982098       5.11949033         0.00000000       0.00000000       0.00000000          1
H         5.82561464       4.06695253       6.53005818         0.00000000       0.00000000       0.00000000          1
H         3.96939938       2.84010401       4.84080837         0.00000000       0.00000000       0.00000000          1
6
pbc=[F, F, F] list_num_par=6 energy=-1.26974174 iter=20000 frozen=false Lattice="15.00000000 0.00000000 0.00000000 0.00000000 15.00000000 0.00000000 0.00000000 0.00000000 15.00000000" energy_frozen_part=0.00000000 Properties=species:S:1:pos:R:3:velocities:R:3:Z:I:1
H         3.67154522       5.23297840       3.43023487         0.00000000       0.00000000       0.00000000          1
H         3.28741331       5.18538433       6.19690327         0.00000000       0.00000000       0.00000000          1
H         6.20972842       4.11453610       3.76340498         0.00000000       0.00000000       0.00000000          1
H         5.52778755       6.45981244       5.11947701         0.00000000       0.00000000       0.00000000          1
H         5.82560168       4.06695211       6.53008007         0.00000000       0.00000000       0.00000000          1
H         3.96936187       2.84010675       4.84084164         0.00000000       0.00000000       0.00000000          1
6
pbc=[F, F, F] list_num_par=6 energy=-1.26974174 iter=20000 frozen=false Lattice="15.00000000 0.00000000 0.00000000 0.00000000 15.00000000 0.00000000 0.00000000 0.00000000 15.00000000" energy_frozen_part=0.00000000 Properties=species:S:1:pos:R:3:velocities:R:3:Z:I:1
H         4.96143058       6.48428098       7.99821778         0.00000000       0.00000000       0.00000000          1
H         3.31733017       2.90450779       7.69697617         0.00000000       0.00000000       0.00000000          1
H         5.57842463       3.93898767       8.97039627         0.00000000       0.00000000       0.00000000          1
H         2.70033682       5.44979961       6.72481122         0.00000000       0.00000000       0.00000000          1
H         3.06443045       5.05191697       9.46586832         0.00000000       0.00000000       0.00000000          1
H         5.21433465       4.33687242       6.22933646         0.00000000       0.00000000       0.00000000          1
6
pbc=[F, F, F] list_num_par=6 energy=-1.26974174 iter=20000 frozen=false Lattice="15.00000000 0.00000000 0.00000000 0.00000000 15.00000000 0.00000000 0.00000000 0.00000000 15.00000000" energy_frozen_part=0.00000000 Properties=species:S:1:pos:R:3:velocities:R:3:Z:I:1
H         4.96138770       6.48429088       7.99820402         0.00000000       0.00000000       0.00000000          1
H         3.31739884       2.90446722       7.69701924         0.00000000       0.00000000       0.00000000          1
H         5.57840964       3.93905575       8.97049244         0.00000000       0.00000000       0.00000000          1
H         2.70036706       5.44970659       6.72473363         0.00000000       0.00000000       0.00000000          1
H         3.06435493       5.05192705       9.46582587         0.00000000       0.00000000       0.00000000          1
H         5.21441706       4.33683394       6.22940126         0.00000000       0.00000000       0.00000000          1
6
pbc=[F, F, F] list_num_par=6 energy=-1.26974174 iter=20000 frozen=false Lattice="15.00000000 0.00000000 0.00000000 0.00000000 15.00000000 0.00000000 0.00000000 0.00000000 15.00000000" energy_frozen_part=0.00000000 Properties=species:S:1:pos:R:3:velocities:R:3:Z:I:1
H         4.96397215       6.48620752       7.99100838         0.00000000       0.00000000       0.00000000          1
H         3.32636221       2.90246244       7.70195805         0.00000000       0.00000000       0.00000000          1
H         5.59074294       3.94363311       8.96403173         0.00000000       0.00000000       0.00000000          1
H         2.69959133       5.44503254       6.72892778         0.00000000       0.00000000       0.00000000          1
H         3.07651547       5.05179661       9.46893091         0.00000000       0.00000000       0.00000000          1
H         5.21382016       4.33686604       6.22403077         0.00000000       0.00000000       0.00000000          1
6
pbc=[F, F, F] list_num_par=6 energy=-1.26974174 iter=20000 frozen=false Lattice="15.00000000 0.00000000 0.00000000 0.00000000 15.00000000 0.00000000 0.00000000 0.00000000 15.00000000" energy_frozen_part=0.00000000 Properties=species:S:1:pos:R:3:velocities:R:3:Z:I:1
H         4.96399298       6.48616959       7.99104407         0.00000000       0.00000000       0.00000000          1
H         3.32637477       2.90243325       7.70193697         0.00000000       0.00000000       0.00000000          1
H         5.59077025       3.94358038       8.96400754         0.00000000       0.00000000       0.00000000          1
H         2.69958977       5.44502659       6.72898050         0.00000000       0.00000000       0.00000000          1
H         3.07654838       5.05173973       9.46896444         0.00000000       0.00000000       0.00000000          1
H         5.21380964       4.33687068       6.22402343         0.00000000       0.00000000       0.00000000          1
6
pbc=[F, F, F] list_num_par=6 energy=-1.26974174 iter=20000 frozen=false Lattice="15.00000000 0.00000000 0.00000000 0.00000000 15.00000000 0.00000000 0.00000000 0.00000000 15.00000000" energy_frozen_part=0.00000000 Properties=species:S:1:pos:R:3:velocities:R:3:Z:I:1
H         3.67158490       5.23297898       3.43022812         0.00000000       0.00000000       0.00000000          1
H         3.28742495       5.18536389       6.19689730         0.00000000       0.00000000       0.00000000          1
H         6.20977162       4.11455568       3.76340957         0.00000000       0.00000000       0.00000000          1
H         5.52779319       6.45981618       5.11949019         0.00000000       0.00000000       0.00000000          1
H         5.82561567       4.06694639       6.53007785         0.00000000       0.00000000       0.00000000          1
H         3.96940332       2.84011050       4.84081899         0.00000000       0.00000000       0.00000000          1
6
pbc=[F, F, F] list_num_par=6 energy=-1.26974174 iter=20000 frozen=false Lattice="15.00000000 0.00000000 0.00000000 0.00000000 15.00000000 0.00000000 0.00000000 0.00000000 15.00000000" energy_frozen_part=0.00000000 Properties=species:S:1:pos:R:3:velocities:R:3:Z:I:1
H         3.67154300       5.23296347       3.43023764         0.00000000       0.00000000       0.00000000          1
H         3.28740081       5.18535586       6.19690603         0.00000000       0.00000000       0.00000000          1
H         6.20974197       4.11456252       3.76341324         0.00000000       0.00000000       0.00000000          1
H         5.52776173       6.45982218       5.11948126         0.00000000       0.00000000       0.00000000          1
H         5.82560563       4.06696326       6.53008252         0.00000000       0.00000000       0.00000000          1
H         3.96939481       2.84009636       4.84082935         0.00000000       0.00000000       0.00000000          1
6
pbc=[F, F, F] list_num_par=6 energy=-1.26974174 iter=20000 frozen=false Lattice="15.00000000 0.00000000 0.00000000 0.00000000 15.00000000 0.00000000 0.00000000 0.00000000 15.00000000" energy_frozen_part=0.00000000 Properties=species:S:1:pos:R:3:velocities:R:3:Z:I:1
H         3.67154180       5.23295716       3.43021743         0.00000000       0.00000000       0.00000000          1
H         3.28739096       5.18535603       6.19689064         0.00000000       0.00000000       0.00000000          1
H         6.20973150       4.11453504       3.76340693         0.00000000       0.00000000       0.00000000          1
H         5.52775696       6.45979999       5.11946985         0.00000000       0.00000000       0.00000000          1
H         5.82558342       4.06694321       6.53007632         0.00000000       0.00000000       0.00000000          1
H         3.96936788       2.84009342       4.84081640         0.00000000       0.00000000       0.00000000          1
6
pbc=[F, F, F] list_num_par=6 energy=-1.26974174 iter=20000 frozen=false Lattice="15.00000000 0.00000000 0.00000000 0.00000000 15.00000000 0.00000000 0.00000000 0.00000000 15.00000000" energy_frozen_part=0.00000000 Properties=species:S:1:pos:R:3:velocities:R:3:Z:I:1
H         3.67154872       5.23294972       3.43023559         0.00000000       0.00000000       0.00000000          1
H         3.28739047       5.18535444       6.19689867         0.00000000       0.00000000       0.00000000          1
H         6.20975284       4.11456382       3.76343609         0.00000000       0.00000000       0.00000000          1
H         5.52774852       6.45982281       5.11949854         0.00000000       0.00000000       0.00000000          1
H         5.82559569       4.06696734       6.53009428         0.00000000       0.00000000       0.00000000          1
H         3.96939660       2.84009269       4.84083972         0.00000000       0.00000000       0.00000000          1
6
pbc=[F, F, F] list_num_par=6 energy=-1.26974174 iter=20000 frozen=false Lattice="15.00000000 0.00000000 0.00000000 0.00000000 15.00000000 0.00000000 0.00000000 0.00000000 15.00000000" energy_frozen_part=0.00000000 Properties=species:S:1:pos:R:3:velocities:R:3:Z:I:1
H         3.67159587       5.23304612       3.43035172         0.00000000       0.00000000       0.00000000          1
H         3.28750228       5.18539036       6.19702116         0.00000000       0.00000000       0.00000000          1
H         6.20978195       4.11458910       3.76345573         0.00000000       0.00000000       0.00000000          1
H         5.52786043       6.45983619       5.11958979         0.00000000       0.00000000       0.00000000          1
H         5.82569370       4.06693991       6.53013251         0.00000000       0.00000000       0.00000000          1
H         3.96942954       2.84014256       4.84089473         0.00000000       0.00000000       0.00000000          1
6
pbc=[F, F, F] list_num_par=6 energy=-1.26974174 iter=20000 frozen=false Lattice="15.00000000 0.00000000 0.00000000 0.00000000 15.00000000 0.00000000 0.00000000 0.00000000 15.00000000" energy_frozen_part=0.00000000 Properties=species:S:1:pos:R:3:velocities:R:3:Z:I:1
H         3.67155434       5.23301441       3.43035489         0.00000000       0.00000000       0.00000000          1
H         3.28750131       5.18538224       6.19703911         0.00000000       0.00000000       0.00000000          1
H         6.20977068       4.11461504       3.76344726         0.00000000       0.00000000       0.00000000          1
H         5.52781915       6.45985758       5.11956189         0.00000000       0.00000000       0.00000000          1
H         5.82571867       4.06698275       6.53012971         0.00000000       0.00000000       0.00000000          1
H         3.96944834       2.84014205       4.84092808         0.00000000       0.00000000       0.00000000          1
6
pbc=[F, F, F] list_num_par=6 energy=-1.26974174 iter=20000 frozen=false Lattice="15.00000000 0.00000000 0.00000000 0.00000000 15.00000000 0.00000000 0.00000000 0.00000000 15.00000000" energy_frozen_part=0.00000000 Properties=species:S:1:pos:R:3:velocities:R:3:Z:I:1
H         3.67155354       5.23296543       3.43023303         0.00000000       0.00000000       0.00000000          1
H         3.28740521       5.18534870       6.19690646         0.00000000       0.00000000       0.00000000          1
H         6.20974785       4.11454829       3.76341358         0.00000000       0.00000000       0.00000000          1
H         5.52777025       6.45980216       5.11949906         0.00000000       0.00000000       0.00000000          1
H         5.82559456       4.06693448       6.53007936         0.00000000       0.00000000       0.00000000          1
H         3.96937881       2.84008972       4.84081371         0.00000000       0.00000000       0.00000000          1
6
pbc=[F, F, F] list_num_par=6 energy=-1.26974174 iter=20000 frozen=false Lattice="15.00000000 0.00000000 0.00000000 0.00000000 15.00000000 0.00000000 0.00000000 0.00000000 15.00000000" energy_frozen_part=0.00000000 Properties=species:S:1:pos:R:3:velocities:R:3:Z:I:1
H         4.96398402       6.48620587       7.99104469         0.00000000       0.00000000       0.00000000          1
H         3.32636773       2.90246754       7.70193798         0.00000000       0.00000000       0.00000000          1
H         5.59073599       3.94361663       8.96404075         0.00000000       0.00000000       0.00000000          1
H         2.69961213       5.44504798       6.72893642         0.00000000       0.00000000       0.00000000          1
H         3.07650965       5.05179097       9.46893403         0.00000000       0.00000000       0.00000000          1
H         5.21383474       4.33688965       6.22404204         0.00000000       0.00000000       0.00000000          1
6
pbc=[F, F, F] list_num_par=6 energy=-1.26974174 iter=20000 frozen=false Lattice="15.00000000 0.00000000 0.00000000 0.00000000 15.00000000 0.00000000 0.00000000 0.00000000 15.00000000" energy_frozen_part=0.00000000 Properties=species:S:1:pos:R:3:velocities:R:3:Z:I:1
H         3.67160021       5.23303077       3.43034232         0.00000000       0.00000000       0.00000000          1
H         3.28749448       5.18537615       6.19701663         0.00000000       0.00000000       0.00000000          1
H         6.20978863       4.11460189       3.76345960         0.00000000       0.00000000       0.00000000          1
H         5.52784259       6.45984507       5.11959588         0.00000000       0.00000000       0.00000000          1
H         5.82569542       4.06694804       6.53013133         0.00000000       0.00000000       0.00000000          1
H         3.96944354       2.84013634       4.84089056         0.00000000       0.00000000       0.00000000          1
6
pbc=[F, F, F] list_num_par=6 energy=-1.26974174 iter=20000 frozen=false Lattice="15.00000000 0.00000000 0.00000000 0.00000000 15.00000000 0.00000000 0.00000000 0.00000000 15.00000000" energy_frozen_part=0.00000000 Properties=species:S:1:pos:R:3:velocities:R:3:Z:I:1
H         3.67159551       5.23304473       3.43030559         0.00000000       0.00000000       0.00000000          1
H         3.28744203       5.18535166       6.19697281         0.00000000       0.00000000       0.00000000          1
H         6.20976495       4.11455292       3.76345098         0.00000000       0.00000000       0.00000000          1
H         5.52784397       6.45978168       5.11960981         0.00000000       0.00000000       0.00000000          1
H         5.82561271       4.06686026       6.53011887         0.00000000       0.00000000       0.00000000          1
H         3.96937080       2.84012121       4.84082175         0.00000000       0.00000000       0.00000000          1
6
pbc=[F, F, F] list_num_par=6 energy=-1.26974174 iter=20000 frozen=false Lattice="15.00000000 0.00000000 0.00000000 0.00000000 15.00000000 0.00000000 0.00000000 0.00000000 15.00000000" energy_frozen_part=0.00000000 Properties=species:S:1:pos:R:3:velocities:R:3:Z:I:1
H         3.67154661       5.23295939       3.43020854         0.00000000       0.00000000       0.00000000          1
H         3.28739474       5.18533927       6.19688048         0.00000000       0.00000000       0.00000000          1
H         6.20974120       4.11455173       3.76339299         0.00000000       0.00000000       0.00000000          1
H         5.52775276       6.45980584       5.11947713         0.00000000       0.00000000       0.00000000          1
H         5.82559843       4.06693322       6.53005936         0.00000000       0.00000000       0.00000000          1
H         3.96938178       2.84008943       4.84080348         0.00000000       0.00000000       0.00000000          1
6
pbc=[F, F, F] list_num_par=6 energy=-1.26974174 iter=20000 frozen=false Lattice="15.00000000 0.00000000 0.00000000 0.00000000 15.00000000 0.00000000 0.00000000 0.00000000 15.00000000" energy_frozen_part=0.00000000 Properties=species:S:1:pos:R:3:velocities:R:3:Z:I:1
H         3.67153813       5.23296226       3.43023792         0.00000000       0.00000000       0.00000000          1
H         3.28740081       5.18533221       6.19690407         0.00000000       0.00000000       0.00000000          1
H         6.20974819       4.11456792       3.76339967         0.00000000       0.00000000       0.00000000          1
H         5.52775564       6.45981565       5.11948843         0.00000000       0.00000000       0.00000000          1
H         5.82560407       4.06694674       6.53006943         0.00000000       0.00000000       0.00000000          1
H         3.96939579       2.84008854       4.84081597         0.00000000       0.00000000       0.00000000          1
6
pbc=[F, F, F] list_num_par=6 energy=-1.26974174 iter=20000 frozen=false Lattice="15.00000000 0.00000000 0.00000000 0.00000000 15.00000000 0.00000000 0.00000000 0.00000000 15.00000000" energy_frozen_part=0.00000000 Properties=species:S:1:pos:R:3:velocities:R:3:Z:I:1
H         4.96399817       6.48621397       7.99103361         0.00000000       0.00000000       0.00000000          1
H         3.32636944       2.90247288       7.70194994         0.00000000       0.00000000       0.00000000          1
H         5.59074857       3.94362972       8.96403334         0.00000000       0.00000000       0.00000000          1
H         2.69961267       5.44506171       6.72894241         0.00000000       0.00000000       0.00000000          1
H         3.07653167       5.05180078       9.46893874         0.00000000       0.00000000       0.00000000          1
H         5.21383388       4.33689316       6.22404044         0.00000000       0.00000000       0.00000000          1
6
pbc=[F, F, F] list_num_par=6 energy=-1.26974174 iter=20000 frozen=false Lattice="15.00000000 0.00000000 0.00000000 0.00000000 15.00000000 0.00000000 0.00000000 0.00000000 15.00000000" energy_frozen_part=0.00000000 Properties=species:S:1:pos:R:3:velocities:R:3:Z:I:1
H         4.96441904       6.48571330       7.99002216         0.00000000       0.00000000       0.00000000          1
H         3.32499939       2.90267936       7.70229762         0.00000000       0.00000000       0.00000000          1
H         5.58979166       3.94322384       8.96414814         0.00000000       0.00000000       0.00000000          1
H         2.69962432       5.44517233       6.72817020         0.00000000       0.00000000       0.00000000          1
H         3.07608992       5.05287705       9.46836332         0.00000000       0.00000000       0.00000000          1
H         5.21332993       4.33551017       6.22395152         0.00000000       0.00000000       0.00000000          1
6
pbc=[F, F, F] list_num_par=6 energy=-1.26974174 iter=20000 frozen=false Lattice="15.00000000 0.00000000 0.00000000 0.00000000 15.00000000 0.00000000 0.00000000 0.00000000 15.00000000" energy_frozen_part=0.00000000 Properties=species:S:1:pos:R:3:velocities:R:3:Z:I:1
H         3.67158118       5.23306404       3.43034788         0.00000000       0.00000000       0.00000000          1
H         3.28748610       5.18537859       6.19701642         0.00000000       0.00000000       0.00000000          1
H         6.20976717       4.11462222       3.76345180         0.00000000       0.00000000       0.00000000          1
H         5.52784057       6.45984670       5.11961461         0.00000000       0.00000000       0.00000000          1
H         5.82567627       4.06693500       6.53012368         0.00000000       0.00000000       0.00000000          1
H         3.96941591       2.84015102       4.84086311         0.00000000       0.00000000       0.00000000          1
6
pbc=[F, F, F] list_num_par=6 energy=-1.26974174 iter=20000 frozen=false Lattice="15.00000000 0.00000000 0.00000000 0.00000000 15.00000000 0.00000000 0.00000000 0.00000000 15.00000000" energy_frozen_part=0.00000000 Properties=species:S:1:pos:R:3:velocities:R:3:Z:I:1
H         3.67154664       5.23296381       3.43022958         0.00000000       0.00000000       0.00000000          1
H         3.28740505       5.18535324       6.19690207         0.00000000       0.00000000       0.00000000          1
H         6.20975026       4.11456320       3.76340263         0.00000000       0.00000000       0.00000000          1
H         5.52776422       6.45981826       5.11948644         0.00000000       0.00000000       0.00000000          1
H         5.82561045       4.06695178       6.53006872         0.00000000       0.00000000       0.00000000          1
H         3.96939374       2.84009266       4.84081690         0.00000000       0.00000000       0.00000000          1
6
pbc=[F, F, F] list_num_par=6 energy=-1.26974174 iter=20000 frozen=false Lattice="15.00000000 0.00000000 0.00000000 0.00000000 15.00000000 0.00000000 0.00000000 0.00000000 15.00000000" energy_frozen_part=0.00000000 Properties=species:S:1:pos:R:3:velocities:R:3:Z:I:1
H         3.67155123       5.23296111       3.43023309         0.00000000       0.00000000       0.00000000          1
H         3.28742840       5.18537280       6.19690252         0.00000000       0.00000000       0.00000000          1
H         6.20974540       4.11455172       3.76340593         0.00000000       0.00000000       0.00000000          1
H         5.52778666       6.45981744       5.11947308         0.00000000       0.00000000       0.00000000          1
H         5.82562318       4.06695247       6.53007666         0.00000000       0.00000000       0.00000000          1
H         3.96938464       2.84010493       4.84083867         0.00000000       0.00000000       0.00000000          1
6
pbc=[F, F, F] list_num_par=6 energy=-1.26974174 iter=20000 frozen=false Lattice="15.00000000 0.00000000 0.00000000 0.00000000 15.00000000 0.00000000 0.00000000 0.00000000 15.00000000" energy_frozen_part=0.00000000 Properties=species:S:1:pos:R:3:velocities:R:3:Z:I:1
H         4.96144765       6.48427447       7.99821472         0.00000000       0.00000000       0.00000000          1
H         3.31733978       2.90450208       7.69697484         0.00000000       0.00000000       0.00000000          1
H         5.57842790       3.93899091       8.97038891         0.00000000       0.00000000       0.00000000          1
H         2.70034885       5.44978990       6.72479826         0.00000000       0.00000000       0.00000000          1
H         3.06443244       5.05191796       9.46586135         0.00000000       0.00000000       0.00000000          1
H         5.21435012       4.33686800       6.22933008         0.00000000       0.00000000       0.00000000          1
6
pbc=[F, F, F] list_num_par=6 energy=-1.26974174 iter=20000 frozen=false Lattice="15.00000000 0.00000000 0.00000000 0.00000000 15.00000000 0.00000000 0.00000000 0.00000000 15.00000000" energy_frozen_part=0.00000000 Properties=species:S:1:pos:R:3:velocities:R:3:Z:I:1
H         3.67152762       5.23296405       3.43022031         0.00000000       0.00000000       0.00000000          1
H         3.28741440       5.18536490       6.19689237         0.00000000       0.00000000       0.00000000          1
H         6.20971874       4.11453797       3.76337810         0.00000000       0.00000000       0.00000000          1
H         5.52777262       6.45980473       5.11945152         0.00000000       0.00000000       0.00000000          1
H         5.82559890       4.06693150       6.53004955         0.00000000       0.00000000       0.00000000          1
H         3.96935566       2.84009131       4.84081190         0.00000000       0.00000000       0.00000000          1
6
pbc=[F, F, F] list_num_par=6 energy=-1.26974174 iter=20000 frozen=false Lattice="15.00000000 0.00000000 0.00000000 0.00000000 15.00000000 0.00000000 0.00000000 0.00000000 15.00000000" energy_frozen_part=0.00000000 Properties=species:S:1:pos:R:3:velocities:R:3:Z:I:1
H         4.96143743       6.48425942       7.99821648         0.00000000       0.00000000       0.00000000          1
H         3.31732339       2.90449664       7.69697515         0.00000000       0.00000000       0.00000000          1
H         5.57841045       3.93896937       8.97039015         0.00000000       0.00000000       0.00000000          1
H         2.70034646       5.44978546       6.72479785         0.00000000       0.00000000       0.00000000          1
H         3.06441774       5.05190908       9.46586072         0.00000000       0.00000000       0.00000000          1
H         5.21434164       4.33684469       6.22933092         0.00000000       0.00000000       0.00000000          1
6
pbc=[F, F, F] list_num_par=6 energy=-1.26974174 iter=20000 frozen=false Lattice="15.00000000 0.00000000 0.00000000 0.00000000 15.00000000 0.00000000 0.00000000 0.00000000 15.00000000" energy_frozen_part=0.00000000 Properties=species:S:1:pos:R:3:velocities:R:3:Z:I:1
H         3.67155846       5.23297101       3.43022664         0.00000000       0.00000000       0.00000000          1
H         3.28740564       5.18535064       6.19689018         0.00000000       0.00000000       0.00000000          1
H         6.20974900       4.11456180       3.76339525         0.00000000       0.00000000       0.00000000          1
H         5.52777048       6.45981417       5.11948756         0.00000000       0.00000000       0.00000000          1
H         5.82559620       4.06693694       6.53006657         0.00000000       0.00000000       0.00000000          1
H         3.96938422       2.84009438       4.84080740         0.00000000       0.00000000       0.00000000          1
6
pbc=[F, F, F] list_num_par=6 energy=-1.26974174 iter=20000 frozen=false Lattice="15.00000000 0.00000000 0.00000000 0.00000000 15.00000000 0.00000000 0.00000000 0.00000000 15.00000000" energy_frozen_part=0.00000000 Properties=species:S:1:pos:R:3:velocities:R:3:Z:I:1
H         3.67159499       5.23304016       3.43035178         0.00000000       0.00000000       0.00000000          1
H         3.28750988       5.18539061       6.19703079         0.00000000       0.00000000       0.00000000          1