6
pbc=[F, F, F] list_num_par=6 frozen=false iter=20000 energy=-1.22882827 Lattice="15.00000000 0.00000000 0.00000000 0.00000000 15.00000000 0.00000000 0.00000000 0.00000000 15.00000000" energy_frozen_part=0.00000000 Properties=species:S:1:pos:R:3:velocities:R:3:Z:I:1
H        12.28762220       3.22509962       3.05584457         0.00000000       0.00000000       0.00000000          1
H        10.60904471       3.33284438       5.33028336         0.00000000       0.00000000       0.00000000          1
H        11.51692353       5.69474497       4.12924669         0.00000000       0.00000000       0.00000000          1
H        13.30698000       4.05909263       5.52781751         0.00000000       0.00000000       0.00000000          1
H         9.63873524       4.07433831       2.81986723         0.00000000       0.00000000       0.00000000          1
H        12.59064091       1.37705015       5.12620612         0.00000000       0.00000000       0.00000000          1
6
pbc=[F, F, F] list_num_par=6 frozen=false iter=20000 energy=-1.22882827 Lattice="15.00000000 0.00000000 0.00000000 0.00000000 15.00000000 0.00000000 0.00000000 0.00000000 15.00000000" energy_frozen_part=0.00000000 Properties=species:S:1:pos:R:3:velocities:R:3:Z:I:1
H        12.28797810       3.22509841       3.05589958         0.00000000       0.00000000       0.00000000          1
H        10.60898327       3.33213581       5.33006535         0.00000000       0.00000000       0.00000000          1
H        11.51637699       5.69441599       4.12939985         0.00000000       0.00000000       0.00000000          1
H        13.30667073       4.05916454       5.52812995         0.00000000       0.00000000       0.00000000          1
H         9.63887600       4.07358501       2.81955918         0.00000000       0.00000000       0.00000000          1
H        12.59119461       1.37694659       5.12614120         0.00000000       0.00000000       0.00000000          1
6
pbc=[F, F, F] list_num_par=6 frozen=false iter=20000 energy=-1.22882827 Lattice="15.00000000 0.00000000 0.00000000 0.00000000 15.00000000 0.00000000 0.00000000 0.00000000 15.00000000" energy_frozen_part=0.00000000 Properties=species:S:1:pos:R:3:velocities:R:3:Z:I:1
H        12.28806275       3.22526772       3.05598178         0.00000000       0.00000000       0.00000000          1
H        10.60896108       3.33205765       5.33008146         0.00000000       0.00000000       0.00000000          1
H        11.51624489       5.69446979       4.12959985         0.00000000       0.00000000       0.00000000          1
H        13.30659075       4.05925920       5.52830488         0.00000000       0.00000000       0.00000000          1
H         9.63891639       4.07358831       2.81957437         0.00000000       0.00000000       0.00000000          1
H        12.59131390       1.37701776       5.12613553         0.00000000       0.00000000       0.00000000          1
6
pbc=[F, F, F] list_num_par=6 frozen=false iter=20000 energy=-1.22882827 Lattice="15.00000000 0.00000000 0.00000000 0.00000000 15.00000000 0.00000000 0.00000000 0.00000000 15.00000000" energy_frozen_part=0.00000000 Properties=species:S:1:pos:R:3:velocities:R:3:Z:I:1
H        12.29017820       3.22724056       3.05555942         0.00000000       0.00000000       0.00000000          1
H        10.60934840       3.33213269       5.32846990         0.00000000       0.00000000       0.00000000          1
H        11.52124768       5.69550631       4.13338698         0.00000000       0.00000000       0.00000000          1
H        13.30792207       4.05480875       5.53036390         0.00000000       0.00000000       0.00000000          1
H         9.64253250       4.08008140       2.81862457         0.00000000       0.00000000       0.00000000          1
H        12.58887607       1.37446051       5.12231440         0.00000000       0.00000000       0.00000000          1
6
pbc=[F, F, F] list_num_par=6 frozen=false iter=20000 energy=-1.22882827 Lattice="15.00000000 0.00000000 0.00000000 0.00000000 15.00000000 0.00000000 0.00000000 0.00000000 15.00000000" energy_frozen_part=0.00000000 Properties=species:S:1:pos:R:3:velocities:R:3:Z:I:1
H        12.28760904       3.22509781       3.05583564         0.00000000       0.00000000       0.00000000          1
H        10.60906435       3.33285710       5.33029168         0.00000000       0.00000000       0.00000000          1
H        11.51693757       5.69475406       4.12923620         0.00000000       0.00000000       0.00000000          1
H        13.30700216       4.05910553       5.52779369         0.00000000       0.00000000       0.00000000          1
H         9.63872130       4.07434871       2.81989163         0.00000000       0.00000000       0.00000000          1
H        12.59065793       1.37706343       5.12620178         0.00000000       0.00000000       0.00000000          1
6
pbc=[F, F, F] list_num_par=6 frozen=false iter=20000 energy=-1.22882827 Lattice="15.00000000 0.00000000 0.00000000 0.00000000 15.00000000 0.00000000 0.00000000 0.00000000 15.00000000" energy_frozen_part=0.00000000 Properties=species:S:1:pos:R:3:velocities:R:3:Z:I:1
H        12.28997908       3.22717715       3.05530337         0.00000000       0.00000000       0.00000000          1
H        10.60932193       3.33226197       5.32832879         0.00000000       0.00000000       0.00000000          1
H        11.52134014       5.69553483       4.13312888         0.00000000       0.00000000       0.00000000          1
H        13.30797000       4.05471114       5.53001810         0.00000000       0.00000000       0.00000000          1
H         9.64239186       4.08024517       2.81853189         0.00000000       0.00000000       0.00000000          1
H        12.58866731       1.37441409       5.12207913         0.00000000       0.00000000       0.00000000          1
6
pbc=[F, F, F] list_num_par=6 frozen=false iter=20000 energy=-1.22882827 Lattice="15.00000000 0.00000000 0.00000000 0.00000000 15.00000000 0.00000000 0.00000000 0.00000000 15.00000000" energy_frozen_part=0.00000000 Properties=species:S:1:pos:R:3:velocities:R:3:Z:I:1
H        12.28805018       3.22527070       3.05598322         0.00000000       0.00000000       0.00000000          1
H        10.60897253       3.33207295       5.33009418         0.00000000       0.00000000       0.00000000          1
H        11.51625527       5.69447674       4.12959854         0.00000000       0.00000000       0.00000000          1
H        13.30661088       4.05925717       5.52829017         0.00000000       0.00000000       0.00000000          1
H         9.63890943       4.07360121       2.81959195         0.00000000       0.00000000       0.00000000          1
H        12.59131099       1.37702029       5.12612776         0.00000000       0.00000000       0.00000000          1
6
pbc=[F, F, F] list_num_par=6 frozen=false iter=20000 energy=-1.22882827 Lattice="15.00000000 0.00000000 0.00000000 0.00000000 15.00000000 0.00000000 0.00000000 0.00000000 15.00000000" energy_frozen_part=0.00000000 Properties=species:S:1:pos:R:3:velocities:R:3:Z:I:1
H        12.29017777       3.22723436       3.05556874         0.00000000       0.00000000       0.00000000          1
H        10.60936344       3.33213047       5.32849077         0.00000000       0.00000000       0.00000000          1
H        11.52125688       5.69550097       4.13340035         0.00000000       0.00000000       0.00000000          1
H        13.30794071       4.05479459       5.53036603         0.00000000       0.00000000       0.00000000          1
H         9.64252811       4.08007403       2.81865167         0.00000000       0.00000000       0.00000000          1
H        12.58888285       1.37445287       5.12232264         0.00000000       0.00000000       0.00000000          1
6
pbc=[F, F, F] list_num_par=6 frozen=false iter=20000 energy=-1.22882827 Lattice="15.00000000 0.00000000 0.00000000 0.00000000 15.00000000 0.00000000 0.00000000 0.00000000 15.00000000" energy_frozen_part=0.00000000 Properties=species:S:1:pos:R:3:velocities:R:3:Z:I:1
H        12.28808155       3.22532400       3.05599096         0.00000000       0.00000000       0.00000000          1
H        10.60893602       3.33208059       5.33006308         0.00000000       0.00000000       0.00000000          1
H        11.51622441       5.69451309       4.12961785         0.00000000       0.00000000       0.00000000          1
H        13.30655657       4.05929507       5.52834166         0.00000000       0.00000000       0.00000000          1
H         9.63893343       4.07362873       2.81954626         0.00000000       0.00000000       0.00000000          1
H        12.59130764       1.37705550       5.12612430         0.00000000       0.00000000       0.00000000          1
6
pbc=[F, F, F] list_num_par=6 frozen=false iter=20000 energy=-1.22882827 Lattice="15.00000000 0.00000000 0.00000000 0.00000000 15.00000000 0.00000000 0.00000000 0.00000000 15.00000000" energy_frozen_part=0.00000000 Properties=species:S:1:pos:R:3:velocities:R:3:Z:I:1
H        12.28797217       3.22509608       3.05589975         0.00000000       0.00000000       0.00000000          1
H        10.60898194       3.33214071       5.33006361         0.00000000       0.00000000       0.00000000          1
H        11.51637334       5.69441703       4.12939940         0.00000000       0.00000000       0.00000000          1
H        13.30667140       4.05916482       5.52812626         0.00000000       0.00000000       0.00000000          1
H         9.63887769       4.07358227       2.81955176         0.00000000       0.00000000       0.00000000          1
H        12.59119208       1.37694956       5.12613848         0.00000000       0.00000000       0.00000000          1
6
pbc=[F, F, F] list_num_par=6 frozen=false iter=20000 energy=-1.22882827 Lattice="15.00000000 0.00000000 0.00000000 0.00000000 15.00000000 0.00000000 0.00000000 0.00000000 15.00000000" energy_frozen_part=0.00000000 Properties=species:S:1:pos:R:3:velocities:R:3:Z:I:1
H        12.28805558       3.22526916       3.05597875         0.00000000       0.00000000       0.00000000          1
H        10.60897071       3.33207322       5.33008974         0.00000000       0.00000000       0.00000000          1
H        11.51626075       5.69447791       4.12959924         0.00000000       0.00000000       0.00000000          1
H        13.30660518       4.05925843       5.52829635         0.00000000       0.00000000       0.00000000          1
H         9.63891385       4.07360462       2.81958956         0.00000000       0.00000000       0.00000000          1
H        12.59130673       1.37701885       5.12612452         0.00000000       0.00000000       0.00000000          1
6
pbc=[F, F, F] list_num_par=6 frozen=false iter=20000 energy=-1.22882827 Lattice="15.00000000 0.00000000 0.00000000 0.00000000 15.00000000 0.00000000 0.00000000 0.00000000 15.00000000" energy_frozen_part=0.00000000 Properties=species:S:1:pos:R:3:velocities:R:3:Z:I:1
H        12.28808408       3.22524901       3.05602746         0.00000000       0.00000000       0.00000000          1
H        10.60897288       3.33203863       5.33011623         0.00000000       0.00000000       0.00000000          1
H        11.51625615       5.69445145       4.12963150         0.00000000       0.00000000       0.00000000          1
H        13.30660191       4.05924118       5.52835012         0.00000000       0.00000000       0.00000000          1
H         9.63893824       4.07356469       2.81960103         0.00000000       0.00000000       0.00000000          1
H        12.59132551       1.37699886       5.12617168         0.00000000       0.00000000       0.00000000          1
6
pbc=[F, F, F] list_num_par=6 frozen=false iter=20000 energy=-1.22882827 Lattice="15.00000000 0.00000000 0.00000000 0.00000000 15.00000000 0.00000000 0.00000000 0.00000000 15.00000000" energy_frozen_part=0.00000000 Properties=species:S:1:pos:R:3:velocities:R:3:Z:I:1
H        12.29012783       3.22722475       3.05557571         0.00000000       0.00000000       0.00000000          1
H        10.60936447       3.33218005       5.32852544         0.00000000       0.00000000       0.00000000          1
H        11.52121417       5.69552284       4.13334667         0.00000000       0.00000000       0.00000000          1
H        13.30794228       4.05487516       5.53031829         0.00000000       0.00000000       0.00000000          1
H         9.64247168       4.08005023       2.81868092         0.00000000       0.00000000       0.00000000          1
H        12.58889692       1.37451552       5.12238501         0.00000000       0.00000000       0.00000000          1
6
pbc=[F, F, F] list_num_par=6 frozen=false iter=20000 energy=-1.22882827 Lattice="15.00000000 0.00000000 0.00000000 0.00000000 15.00000000 0.00000000 0.00000000 0.00000000 15.00000000" energy_frozen_part=0.00000000 Properties=species:S:1:pos:R:3:velocities:R:3:Z:I:1
H        12.28799877       3.22515209       3.05593752         0.00000000       0.00000000       0.00000000          1
H        10.60896405       3.33211231       5.33007365         0.00000000       0.00000000       0.00000000          1
H        11.51634363       5.69443742       4.12948139         0.00000000       0.00000000       0.00000000          1
H        13.30663723       4.05917288       5.52820472         0.00000000       0.00000000       0.00000000          1
H         9.63889511       4.07361024       2.81956419         0.00000000       0.00000000       0.00000000          1
H        12.59120707       1.37696077       5.12614362         0.00000000       0.00000000       0.00000000          1
6
pbc=[F, F, F] list_num_par=6 frozen=false iter=20000 energy=-1.22882827 Lattice="15.00000000 0.00000000 0.00000000 0.00000000 15.00000000 0.00000000 0.00000000 0.00000000 15.00000000" energy_frozen_part=0.00000000 Properties=species:S:1:pos:R:3:velocities:R:3:Z:I:1
H        12.28810090       3.22529260       3.05599335         0.00000000       0.00000000       0.00000000          1
H        10.60895587       3.33202233       5.33005995         0.00000000       0.00000000       0.00000000          1
H        11.51625236       5.69446743       4.12964744         0.00000000       0.00000000       0.00000000          1
H        13.30657683       4.05922688       5.52835572         0.00000000       0.00000000       0.00000000          1
H         9.63895962       4.07361143       2.81954636         0.00000000       0.00000000       0.00000000          1
H        12.59132151       1.37699513       5.12610172         0.00000000       0.00000000       0.00000000          1
6
pbc=[F, F, F] list_num_par=6 frozen=false iter=20000 energy=-1.22882827 Lattice="15.00000000 0.00000000 0.00000000 0.00000000 15.00000000 0.00000000 0.00000000 0.00000000 15.00000000" energy_frozen_part=0.00000000 Properties=species:S:1:pos:R:3:velocities:R:3:Z:I:1
H        12.28811499       3.22527490       3.05599094         0.00000000       0.00000000       0.00000000          1
H        10.60898079       3.33201709       5.33006863         0.00000000       0.00000000       0.00000000          1
H        11.51626397       5.69445555       4.12963257         0.00000000       0.00000000       0.00000000          1
H        13.30660290       4.05923150       5.52834148         0.00000000       0.00000000       0.00000000          1
H         9.63896904       4.07357934       2.81956205         0.00000000       0.00000000       0.00000000          1
H        12.59135104       1.37699153       5.12611447         0.00000000       0.00000000       0.00000000          1
6
pbc=[F, F, F] list_num_par=6 frozen=false iter=20000 energy=-1.22882827 Lattice="15.00000000 0.00000000 0.00000000 0.00000000 15.00000000 0.00000000 0.00000000 0.00000000 15.00000000" energy_frozen_part=0.00000000 Properties=species:S:1:pos:R:3:velocities:R:3:Z:I:1
H        12.28805303       3.22521231       3.05599253         0.00000000       0.00000000       0.00000000          1
H        10.60897117       3.33210181       5.33010063         0.00000000       0.00000000       0.00000000          1
H        11.51630848       5.69446417       4.12955231         0.00000000       0.00000000       0.00000000          1
H        13.30662264       4.05923153       5.52828970         0.00000000       0.00000000       0.00000000          1
H         9.63893070       4.07359442       2.81958089         0.00000000       0.00000000       0.00000000          1
H        12.59126287       1.37700206       5.12617934         0.00000000       0.00000000       0.00000000          1
6
pbc=[F, F, F] list_num_par=6 frozen=false iter=20000 energy=-1.22882827 Lattice="15.00000000 0.00000000 0.00000000 0.00000000 15.00000000 0.00000000 0.00000000 0.00000000 15.00000000" energy_frozen_part=0.00000000 Properties=species:S:1:pos:R:3:velocities:R:3:Z:I:1
H        12.28765501       3.22509837       3.05582263         0.00000000       0.00000000       0.00000000          1
H        10.60905006       3.33285203       5.33024068         0.00000000       0.00000000       0.00000000          1
H        11.51692669       5.69475223       4.12918327         0.00000000       0.00000000       0.00000000          1
H        13.30697730       4.05913767       5.52780285         0.00000000       0.00000000       0.00000000          1
H         9.63876394       4.07431728       2.81980422         0.00000000       0.00000000       0.00000000          1
H        12.59067453       1.37708018       5.12621237         0.00000000       0.00000000       0.00000000          1
6
pbc=[F, F, F] list_num_par=6 frozen=false iter=20000 energy=-1.22882827 Lattice="15.00000000 0.00000000 0.00000000 0.00000000 15.00000000 0.00000000 0.00000000 0.00000000 15.00000000" energy_frozen_part=0.00000000 Properties=species:S:1:pos:R:3:velocities:R:3:Z:I:1
H        12.28759956       3.22508386       3.05582497         0.00000000       0.00000000       0.00000000          1
H        10.60904275       3.33285757       5.33027178         0.00000000       0.00000000       0.00000000          1
H        11.51693555       5.69474671       4.12922010         0.00000000       0.00000000       0.00000000          1
H        13.30698768       4.05909232       5.52778681         0.00000000       0.00000000       0.00000000          1
H         9.63872117       4.07435793       2.81986365         0.00000000       0.00000000       0.00000000          1
H        12.59062760       1.37705266       5.12620450         0.00000000       0.00000000       0.00000000          1
6
pbc=[F, F, F] list_num_par=6 frozen=false iter=20000 energy=-1.22882827 Lattice="15.00000000 0.00000000 0.00000000 0.00000000 15.00000000 0.00000000 0.00000000 0.00000000 15.00000000" energy_frozen_part=0.00000000 Properties=species:S:1:pos:R:3:velocities:R:3:Z:I:1
H        12.28806345       3.22526554       3.05598366         0.00000000       0.00000000       0.00000000          1
H        10.60896077       3.33205339       5.33007751         0.00000000       0.00000000       0.00000000          1
H        11.51623643       5.69446979       4.12959545         0.00000000       0.00000000       0.00000000          1
H        13.30658811       4.05926182       5.52831124         0.00000000       0.00000000       0.00000000          1
H         9.63891533       4.07357751       2.81957025         0.00000000       0.00000000       0.00000000          1
H        12.59132295       1.37701851       5.12613047         0.00000000       0.00000000       0.00000000          1
6
pbc=[F, F, F] list_num_par=6 frozen=false iter=20000 energy=-1.22882827 Lattice="15.00000000 0.00000000 0.00000000 0.00000000 15.00000000 0.00000000 0.00000000 0.00000000 15.00000000" energy_frozen_part=0.00000000 Properties=species:S:1:pos:R:3:velocities:R:3:Z:I:1
H        12.28759569       3.22507930       3.05584403         0.00000000       0.00000000       0.00000000          1
H        10.60903419       3.33284632       5.33029505         0.00000000       0.00000000       0.00000000          1
H        11.51692811       5.69473826       4.12924250         0.00000000       0.00000000       0.00000000          1
H        13.30697550       4.05908230       5.52781383         0.00000000       0.00000000       0.00000000          1
H         9.63871195       4.07434167       2.81988254         0.00000000       0.00000000       0.00000000          1
H        12.59061828       1.37704303       5.12622052         0.00000000       0.00000000       0.00000000          1
6
pbc=[F, F, F] list_num_par=6 frozen=false iter=20000 energy=-1.22882827 Lattice="15.00000000 0.00000000 0.00000000 0.00000000 15.00000000 0.00000000 0.00000000 0.00000000 15.00000000" energy_frozen_part=0.00000000 Properties=species:S:1:pos:R:3:velocities:R:3:Z:I:1
H        12.28762556       3.22509322       3.05583930         0.00000000       0.00000000       0.00000000          1
H        10.60905285       3.33283621       5.33028142         0.00000000       0.00000000       0.00000000          1
H        11.51693124       5.69473966       4.12924563         0.00000000       0.00000000       0.00000000          1
H        13.30698752       4.05908683       5.52781744         0.00000000       0.00000000       0.00000000          1
H         9.63873934       4.07433755       2.81986520         0.00000000       0.00000000       0.00000000          1
H        12.59065417       1.37704621       5.12620674         0.00000000       0.00000000       0.00000000          1
6
pbc=[F, F, F] list_num_par=6 frozen=false iter=20000 energy=-1.22882827 Lattice="15.00000000 0.00000000 0.00000000 0.00000000 15.00000000 0.00000000 0.00000000 0.00000000 15.00000000" energy_frozen_part=0.00000000 Properties=species:S:1:pos:R:3:velocities:R:3:Z:I:1
H        12.28808269       3.22524404       3.05602389         0.00000000       0.00000000       0.00000000          1
H        10.60897292       3.33203306       5.33011586         0.00000000       0.00000000       0.00000000          1
H        11.51625609       5.69445037       4.12963223         0.00000000       0.00000000       0.00000000          1
H        13.30659993       4.05924210       5.52834962         0.00000000       0.00000000       0.00000000          1
H         9.63893877       4.07356262       2.81960166         0.00000000       0.00000000       0.00000000          1
H        12.59133656       1.37699805       5.12618076         0.00000000       0.00000000       0.00000000          1
6
pbc=[F, F, F] list_num_par=6 frozen=false iter=20000 energy=-1.22882827 Lattice="15.00000000 0.00000000 0.00000000 0.00000000 15.00000000 0.00000000 0.00000000 0.00000000 15.00000000" energy_frozen_part=0.00000000 Properties=species:S:1:pos:R:3:velocities:R:3:Z:I:1
H        12.28760159       3.22508147       3.05583788         0.00000000       0.00000000       0.00000000          1
H        10.60903934       3.33284287       5.33029049         0.00000000       0.00000000       0.00000000          1
H        11.51692221       5.69473590       4.12924036         0.00000000       0.00000000       0.00000000          1
H        13.30697926       4.05908674       5.52780652         0.00000000       0.00000000       0.00000000          1
H         9.63871274       4.07433935       2.81988159         0.00000000       0.00000000       0.00000000          1
H        12.59063399       1.37704712       5.12620948         0.00000000       0.00000000       0.00000000          1
6
pbc=[F, F, F] list_num_par=6 frozen=false iter=20000 energy=-1.22882827 Lattice="15.00000000 0.00000000 0.00000000 0.00000000 15.00000000 0.00000000 0.00000000 0.00000000 15.00000000" energy_frozen_part=0.00000000 Properties=species:S:1:pos:R:3:velocities:R:3:Z:I:1
H        12.28810366       3.22529592       3.05599147         0.00000000       0.00000000       0.00000000          1
H        10.60895818       3.33202685       5.33006267         0.00000000       0.00000000       0.00000000          1
H        11.51625409       5.69447124       4.12965253         0.00000000       0.00000000       0.00000000          1
H        13.30658220       4.05922906       5.52835132         0.00000000       0.00000000       0.00000000          1
H         9.63896504       4.07360802       2.81954773         0.00000000       0.00000000       0.00000000          1
H        12.59131871       1.37699515       5.12609823         0.00000000       0.00000000       0.00000000          1
6
pbc=[F, F, F] list_num_par=6 frozen=false iter=20000 energy=-1.22882827 Lattice="15.00000000 0.00000000 0.00000000 0.00000000 15.00000000 0.00000000 0.00000000 0.00000000 15.00000000" energy_frozen_part=0.00000000 Properties=species:S:1:pos:R:3:velocities:R:3:Z:I:1
H        12.29018386       3.22723783       3.05555992         0.00000000       0.00000000       0.00000000          1
H        10.60934896       3.33212821       5.32846652         0.00000000       0.00000000       0.00000000          1
H        11.52125524       5.69550629       4.13340122         0.00000000       0.00000000       0.00000000          1
H        13.30792357       4.05479515       5.53036683         0.00000000       0.00000000       0.00000000          1
H         9.64254159       4.08008949       2.81861972         0.00000000       0.00000000       0.00000000          1
H        12.58887033       1.37445340       5.12231160         0.00000000       0.00000000       0.00000000          1
6
pbc=[F, F, F] list_num_par=6 frozen=false iter=20000 energy=-1.22882827 Lattice="15.00000000 0.00000000 0.00000000 0.00000000 15.00000000 0.00000000 0.00000000 0.00000000 15.00000000" energy_frozen_part=0.00000000 Properties=species:S:1:pos:R:3:velocities:R:3:Z:I:1
H        12.29019314       3.22723782       3.05556517         0.00000000       0.00000000       0.00000000          1
H        10.60935072       3.33211645       5.32846795         0.00000000       0.00000000       0.00000000          1
H        11.52126028       5.69549871       4.13340838         0.00000000       0.00000000       0.00000000          1
H        13.30792530       4.05478724       5.53037695         0.00000000       0.00000000       0.00000000          1
H         9.64255165       4.08008568       2.81862150         0.00000000       0.00000000       0.00000000          1
H        12.58887346       1.37444345       5.12231097         0.00000000       0.00000000       0.00000000          1
6
pbc=[F, F, F] list_num_par=6 frozen=false iter=20000 energy=-1.22882827 Lattice="15.00000000 0.00000000 0.00000000 0.00000000 15.00000000 0.00000000 0.00000000 0.00000000 15.00000000" energy_frozen_part=0.00000000 Properties=species:S:1:pos:R:3:velocities:R:3:Z:I:1
H        12.28807737       3.22523391       3.05599938         0.00000000       0.00000000       0.00000000          1
H        10.60896532       3.33207578       5.33008396         0.00000000       0.00000000       0.00000000          1
H        11.51629121       5.69446323       4.12958294         0.00000000       0.00000000       0.00000000          1
H        13.30660510       4.05923819       5.52831739         0.00000000       0.00000000       0.00000000          1
H         9.63894824       4.07359325       2.81956430         0.00000000       0.00000000       0.00000000          1
H        12.59129514       1.37700015       5.12616919         0.00000000       0.00000000       0.00000000          1
6
pbc=[F, F, F] list_num_par=6 frozen=false iter=20000 energy=-1.22882827 Lattice="15.00000000 0.00000000 0.00000000 0.00000000 15.00000000 0.00000000 0.00000000 0.00000000 15.00000000" energy_frozen_part=0.00000000 Properties=species:S:1:pos:R:3:velocities:R:3:Z:I:1
H        12.28807474       3.22522635       3.05599793         0.00000000       0.00000000       0.00000000          1
H        10.60895841       3.33206994       5.33007822         0.00000000       0.00000000       0.00000000          1
H        11.51628365       5.69445850       4.12957508         0.00000000       0.00000000       0.00000000          1
H        13.30659744       4.05924231       5.52831798         0.00000000       0.00000000       0.00000000          1
H         9.63894751       4.07358700       2.81955146         0.00000000       0.00000000       0.00000000          1
H        12.59128683       1.37700447       5.12617556         0.00000000       0.00000000       0.00000000          1
6
pbc=[F, F, F] list_num_par=6 frozen=false iter=20000 energy=-1.22882827 Lattice="15.00000000 0.00000000 0.00000000 0.00000000 15.00000000 0.00000000 0.00000000 0.00000000 15.00000000" energy_frozen_part=0.00000000 Properties=species:S:1:pos:R:3:velocities:R:3:Z:I:1
H        12.29018755       3.22724038       3.05556101         0.00000000       0.00000000       0.00000000          1
H        10.60935079       3.33212094       5.32846375         0.00000000       0.00000000       0.00000000          1
H        11.52125785       5.69550107       4.13340880         0.00000000       0.00000000       0.00000000          1
H        13.30792718       4.05478031       5.53037491         0.00000000       0.00000000       0.00000000          1
H         9.64255059       4.08009352       2.81861330         0.00000000       0.00000000       0.00000000          1
H        12.58886768       1.37444018       5.12230171         0.00000000       0.00000000       0.00000000          1
6
pbc=[F, F, F] list_num_par=6 frozen=false iter=20000 energy=-1.22882827 Lattice="15.00000000 0.00000000 0.00000000 0.00000000 15.00000000 0.00000000 0.00000000 0.00000000 15.00000000" energy_frozen_part=0.00000000 Properties=species:S:1:pos:R:3:velocities:R:3:Z:I:1
H        12.28806911       3.22523748       3.05599765         0.00000000       0.00000000       0.00000000          1
H        10.60895866       3.33207813       5.33008944         0.00000000       0.00000000       0.00000000          1