6
pbc=[F, F, F] list_num_par=6 energy=15.89664379 iter=9 frozen=false Lattice="15.00000000 0.00000000 0.00000000 0.00000000 15.00000000 0.00000000 0.00000000 0.00000000 15.00000000" energy_frozen_part=0.00000000 Properties=species:S:1:pos:R:3:velocities:R:3:Z:I:1
H        12.36695574       3.17271215       4.49746797         0.00000000       0.00000000       0.00000000          1
H         0.48266012      12.68032443       3.08616355         0.00000000       0.00000000       0.00000000          1
H        10.08523607      11.61200189       2.39911152         0.00000000       0.00000000       0.00000000          1
H         2.84697255       2.47189718       7.66510654         0.00000000       0.00000000       0.00000000          1
H         0.56666596      14.45510572       2.71444122         0.00000000       0.00000000       0.00000000          1
H         9.41748411       1.78471617      11.64091118         0.00000000       0.00000000       0.00000000          1
6
pbc=[F, F, F] list_num_par=6 energy=1.26783294 iter=19 frozen=false Lattice="15.00000000 0.00000000 0.00000000 0.00000000 15.00000000 0.00000000 0.00000000 0.00000000 15.00000000" energy_frozen_part=0.00000000 Properties=species:S:1:pos:R:3:velocities:R:3:Z:I:1
H         8.28472525       6.66615754      11.76183636         0.00000000       0.00000000       0.00000000          1
H         7.98206514       2.80613327       1.36965918         0.00000000       0.00000000       0.00000000          1
H        14.63500799       4.57807899       6.69729386         0.00000000       0.00000000       0.00000000          1
H        11.12017694       3.63799519       8.63089450         0.00000000       0.00000000       0.00000000          1
H         3.41247219      14.98192280       0.05757646         0.00000000       0.00000000       0.00000000          1
H         3.23016541      12.82381140       0.05029731         0.00000000       0.00000000       0.00000000          1
6
pbc=[F, F, F] list_num_par=6 energy=-0.00276558 iter=29 frozen=false Lattice="15.00000000 0.00000000 0.00000000 0.00000000 15.00000000 0.00000000 0.00000000 0.00000000 15.00000000" energy_frozen_part=0.00000000 Properties=species:S:1:pos:R:3:velocities:R:3:Z:I:1
H         0.46136211      14.96730351      11.84751279         0.00000000       0.00000000       0.00000000          1
H         0.45144649       7.77186434      14.10011301         0.00000000       0.00000000       0.00000000          1
H         4.93699053       1.26326548      14.34321503         0.00000000       0.00000000       0.00000000          1
H         7.56553349       6.63667564      10.57773216         0.00000000       0.00000000       0.00000000          1
H         4.56298993      13.61464695       3.31414385         0.00000000       0.00000000       0.00000000          1
H        12.98688780       2.94757185      12.42512045         0.00000000       0.00000000       0.00000000          1
6
pbc=[F, F, F] list_num_par=6 energy=-0.00497911 iter=39 frozen=false Lattice="15.00000000 0.00000000 0.00000000 0.00000000 15.00000000 0.00000000 0.00000000 0.00000000 15.00000000" energy_frozen_part=0.00000000 Properties=species:S:1:pos:R:3:velocities:R:3:Z:I:1
H         2.55903468      12.31009264       6.08842560         0.00000000       0.00000000       0.00000000          1
H         8.91772603       7.43494407       0.90456248         0.00000000       0.00000000       0.00000000          1
H        14.24947956       2.36921035       3.25103652         0.00000000       0.00000000       0.00000000          1
H         8.46282515       0.21619872       5.93503239         0.00000000       0.00000000       0.00000000          1
H        10.51195767       2.39144225      14.57315151         0.00000000       0.00000000       0.00000000          1
H         9.54184404       7.40800948      12.57074832         0.00000000       0.00000000       0.00000000          1
6
pbc=[F, F, F] list_num_par=6 energy=-0.00614995 iter=49 frozen=false Lattice="15.00000000 0.00000000 0.00000000 0.00000000 15.00000000 0.00000000 0.00000000 0.00000000 15.00000000" energy_frozen_part=0.00000000 Properties=species:S:1:pos:R:3:velocities:R:3:Z:I:1
H         2.72070093       1.26817114       5.06750233         0.00000000       0.00000000       0.00000000          1
H        12.40965268       1.98182606       2.64357087         0.00000000       0.00000000       0.00000000          1
H         6.08843873      13.31517463      14.55590590         0.00000000       0.00000000       0.00000000          1
H        12.55349412      14.06803753      11.83194343         0.00000000       0.00000000       0.00000000          1
H         6.41472306       2.68207621      14.83812658         0.00000000       0.00000000       0.00000000          1
H        14.33811987       0.27977677       7.03251261         0.00000000       0.00000000       0.00000000          1
6
pbc=[F, F, F] list_num_par=6 energy=-0.00795113 iter=59 frozen=false Lattice="15.00000000 0.00000000 0.00000000 0.00000000 15.00000000 0.00000000 0.00000000 0.00000000 15.00000000" energy_frozen_part=0.00000000 Properties=species:S:1:pos:R:3:velocities:R:3:Z:I:1
H         0.63470791       7.04020956      13.45447221         0.00000000       0.00000000       0.00000000          1
H        12.55281975      12.95317115      12.07937383         0.00000000       0.00000000       0.00000000          1
H        14.09658972       0.29847053       6.43422635         0.00000000       0.00000000       0.00000000          1
H         1.88147732      14.03084455      10.16832601         0.00000000       0.00000000       0.00000000          1
H         9.49345017       2.99170977      13.56632604         0.00000000       0.00000000       0.00000000          1
H         6.14204206      11.53300146       9.85290766         0.00000000       0.00000000       0.00000000          1
6
pbc=[F, F, F] list_num_par=6 energy=-0.01102248 iter=69 frozen=false Lattice="15.00000000 0.00000000 0.00000000 0.00000000 15.00000000 0.00000000 0.00000000 0.00000000 15.00000000" energy_frozen_part=0.00000000 Properties=species:S:1:pos:R:3:velocities:R:3:Z:I:1
H         6.71420052       7.43652479       5.14623843         0.00000000       0.00000000       0.00000000          1
H        13.99390685      10.61702048       8.18449679         0.00000000       0.00000000       0.00000000          1
H         0.49355595       0.89190392      11.05308303         0.00000000       0.00000000       0.00000000          1
H         3.06442179      11.12917572       5.15216354         0.00000000       0.00000000       0.00000000          1
H        14.23359530      14.23741772       4.74063105         0.00000000       0.00000000       0.00000000          1
H        14.85683127       0.09828443      11.53021400         0.00000000       0.00000000       0.00000000          1
6
pbc=[F, F, F] list_num_par=6 energy=-0.01351066 iter=79 frozen=false Lattice="15.00000000 0.00000000 0.00000000 0.00000000 15.00000000 0.00000000 0.00000000 0.00000000 15.00000000" energy_frozen_part=0.00000000 Properties=species:S:1:pos:R:3:velocities:R:3:Z:I:1
H         6.68105847       7.26734845       5.15589299         0.00000000       0.00000000       0.00000000          1
H        13.91399023      10.49930704       8.04066379         0.00000000       0.00000000       0.00000000          1
H         0.43574775       0.71878374      11.09125817         0.00000000       0.00000000       0.00000000          1
H         3.13856566      11.00782115       4.99537410         0.00000000       0.00000000       0.00000000          1
H        14.04346166      14.15251226       5.01809245         0.00000000       0.00000000       0.00000000          1
H        14.80009861       0.20343137      11.59173511         0.00000000       0.00000000       0.00000000          1
6
pbc=[F, F, F] list_num_par=6 energy=-0.01788763 iter=89 frozen=false Lattice="15.00000000 0.00000000 0.00000000 0.00000000 15.00000000 0.00000000 0.00000000 0.00000000 15.00000000" energy_frozen_part=0.00000000 Properties=species:S:1:pos:R:3:velocities:R:3:Z:I:1
H         6.48497230       7.00003224      11.08143260         0.00000000       0.00000000       0.00000000          1
H         0.91376335       3.69257085       9.20734708         0.00000000       0.00000000       0.00000000          1
H         9.15789394      14.13937634       6.56419165         0.00000000       0.00000000       0.00000000          1
H         0.61404381       0.67598096      14.27147285         0.00000000       0.00000000       0.00000000          1
H         6.28521476      13.83813343       1.74821828         0.00000000       0.00000000       0.00000000          1
H         4.34058946       9.21630064      14.35661191         0.00000000       0.00000000       0.00000000          1
6
pbc=[F, F, F] list_num_par=6 energy=-0.02243359 iter=99 frozen=false Lattice="15.00000000 0.00000000 0.00000000 0.00000000 15.00000000 0.00000000 0.00000000 0.00000000 15.00000000" energy_frozen_part=0.00000000 Properties=species:S:1:pos:R:3:velocities:R:3:Z:I:1
H         3.76319514       9.86427145      10.41473750         0.00000000       0.00000000       0.00000000          1
H         7.25216768       0.81202305       3.90717297         0.00000000       0.00000000       0.00000000          1
H         7.81440231      11.56939290       2.68577233         0.00000000       0.00000000       0.00000000          1
H         1.88623262       7.00212381       3.10925351         0.00000000       0.00000000       0.00000000          1
H        11.68760956      10.36406251       2.58236667         0.00000000       0.00000000       0.00000000          1
H        11.52668265       0.97467431       9.28825736         0.00000000       0.00000000       0.00000000          1
6
pbc=[F, F, F] list_num_par=6 energy=-0.02568806 iter=109 frozen=false Lattice="15.00000000 0.00000000 0.00000000 0.00000000 15.00000000 0.00000000 0.00000000 0.00000000 15.00000000" energy_frozen_part=0.00000000 Properties=species:S:1:pos:R:3:velocities:R:3:Z:I:1
H        14.11106556       3.81293371      14.75834303         0.00000000       0.00000000       0.00000000          1
H         0.11796149      13.84889535       7.11995244         0.00000000       0.00000000       0.00000000          1
H         3.38031178      12.84844787       3.70266182         0.00000000       0.00000000       0.00000000          1
H         7.80660755      14.41654464       2.08504463         0.00000000       0.00000000       0.00000000          1
H         3.33650159       1.00835069       8.76462234         0.00000000       0.00000000       0.00000000          1
H         5.22100942       9.06414047       5.48893600         0.00000000       0.00000000       0.00000000          1
6
pbc=[F, F, F] list_num_par=6 energy=-0.02964941 iter=119 frozen=false Lattice="15.00000000 0.00000000 0.00000000 0.00000000 15.00000000 0.00000000 0.00000000 0.00000000 15.00000000" energy_frozen_part=0.00000000 Properties=species:S:1:pos:R:3:velocities:R:3:Z:I:1
H        10.65313589      11.88404668      12.38050988         0.00000000       0.00000000       0.00000000          1
H        14.20885821       0.63459292       7.55900821         0.00000000       0.00000000       0.00000000          1
H         9.39468274      14.60114043       2.50577968         0.00000000       0.00000000       0.00000000          1
H        12.50606536       9.06894496       9.42108890         0.00000000       0.00000000       0.00000000          1
H         7.46081885      11.31573439       5.46333306         0.00000000       0.00000000       0.00000000          1
H        14.19661467      13.89087700       8.73697428         0.00000000       0.00000000       0.00000000          1
6
pbc=[F, F, F] list_num_par=6 energy=-0.03472946 iter=129 frozen=false Lattice="15.00000000 0.00000000 0.00000000 0.00000000 15.00000000 0.00000000 0.00000000 0.00000000 15.00000000" energy_frozen_part=0.00000000 Properties=species:S:1:pos:R:3:velocities:R:3:Z:I:1
H        14.33768291       6.42220548      13.30136789         0.00000000       0.00000000       0.00000000          1
H         4.73853508      12.64061852       1.20721282         0.00000000       0.00000000       0.00000000          1
H        11.45549450       4.15812606      14.39082574         0.00000000       0.00000000       0.00000000          1
H         5.14828616      12.76043520       6.68962061         0.00000000       0.00000000       0.00000000          1
H         8.10144918       6.76283363       6.01883396         0.00000000       0.00000000       0.00000000          1
H         8.82366198       0.44625507       7.34786867         0.00000000       0.00000000       0.00000000          1
6
pbc=[F, F, F] list_num_par=6 energy=-0.03913909 iter=139 frozen=false Lattice="15.00000000 0.00000000 0.00000000 0.00000000 15.00000000 0.00000000 0.00000000 0.00000000 15.00000000" energy_frozen_part=0.00000000 Properties=species:S:1:pos:R:3:velocities:R:3:Z:I:1
H         9.62470511       9.58871366       7.79838446         0.00000000       0.00000000       0.00000000          1
H         5.66381919       8.17703820      14.67895491         0.00000000       0.00000000       0.00000000          1
H         5.20896912      14.56553449       0.15992900         0.00000000       0.00000000       0.00000000          1
H         8.59071761      13.32359007       0.69799420         0.00000000       0.00000000       0.00000000          1
H         2.07184141       4.93648057       9.50173629         0.00000000       0.00000000       0.00000000          1
H        14.35246015       4.02523890       7.25044241         0.00000000       0.00000000       0.00000000          1
6
pbc=[F, F, F] list_num_par=6 energy=-0.04391823 iter=149 frozen=false Lattice="15.00000000 0.00000000 0.00000000 0.00000000 15.00000000 0.00000000 0.00000000 0.00000000 15.00000000" energy_frozen_part=0.00000000 Properties=species:S:1:pos:R:3:velocities:R:3:Z:I:1
H         6.48067566       6.36606087      14.10308062         0.00000000       0.00000000       0.00000000          1
H        13.77076507      13.17498354       1.55028682         0.00000000       0.00000000       0.00000000          1
H        13.14979295       4.64929301       6.86949960         0.00000000       0.00000000       0.00000000          1
H        10.52749205      12.44564321       0.32449899         0.00000000       0.00000000       0.00000000          1
H         0.06667936       3.38034301      14.45529709         0.00000000       0.00000000       0.00000000          1
H         2.91114609      14.34535555      11.37837053         0.00000000       0.00000000       0.00000000          1
6
pbc=[F, F, F] list_num_par=6 energy=-0.04608247 iter=159 frozen=false Lattice="15.00000000 0.00000000 0.00000000 0.00000000 15.00000000 0.00000000 0.00000000 0.00000000 15.00000000" energy_frozen_part=0.00000000 Properties=species:S:1:pos:R:3:velocities:R:3:Z:I:1
H         0.27580273       5.50262035      14.86406539         0.00000000       0.00000000       0.00000000          1
H         5.31944132       3.09339551       5.90798384         0.00000000       0.00000000       0.00000000          1
H         4.30786908      12.45337318       3.00329086         0.00000000       0.00000000       0.00000000          1
H        13.21409435       8.37476097      14.33773549         0.00000000       0.00000000       0.00000000          1
H         4.51704747      10.68939408      12.82946194         0.00000000       0.00000000       0.00000000          1
H         2.71417777      13.69394000      13.07289197         0.00000000       0.00000000       0.00000000          1
6
pbc=[F, F, F] list_num_par=6 energy=-0.05429363 iter=169 frozen=false Lattice="15.00000000 0.00000000 0.00000000 0.00000000 15.00000000 0.00000000 0.00000000 0.00000000 15.00000000" energy_frozen_part=0.00000000 Properties=species:S:1:pos:R:3:velocities:R:3:Z:I:1
H         8.55593867       8.12573395      10.94525956         0.00000000       0.00000000       0.00000000          1
H        10.65699295      12.01772220      13.70329529         0.00000000       0.00000000       0.00000000          1
H        14.92719208       1.46057981      14.62770191         0.00000000       0.00000000       0.00000000          1
H        12.97634370       9.55205625       9.49546942         0.00000000       0.00000000       0.00000000          1
H        14.06752224       4.77649989       5.56655563         0.00000000       0.00000000       0.00000000          1
H        10.39225986       4.54436933       5.52150878         0.00000000       0.00000000       0.00000000          1
6
pbc=[F, F, F] list_num_par=6 energy=-0.06096238 iter=179 frozen=false Lattice="15.00000000 0.00000000 0.00000000 0.00000000 15.00000000 0.00000000 0.00000000 0.00000000 15.00000000" energy_frozen_part=0.00000000 Properties=species:S:1:pos:R:3:velocities:R:3:Z:I:1
H        12.79159066       2.57368360      13.86846523         0.00000000       0.00000000       0.00000000          1
H        10.65571195      11.80158356       1.65958314         0.00000000       0.00000000       0.00000000          1
H        14.99421730       5.73028096      10.50389050         0.00000000       0.00000000       0.00000000          1
H         4.47695014       5.34093874      14.04880463         0.00000000       0.00000000       0.00000000          1
H        12.08374175       6.23456140       0.78241748         0.00000000       0.00000000       0.00000000          1
H        13.79546689       9.65964575       1.80141268         0.00000000       0.00000000       0.00000000          1
6
pbc=[F, F, F] list_num_par=6 energy=-0.06564651 iter=189 frozen=false Lattice="15.00000000 0.00000000 0.00000000 0.00000000 15.00000000 0.00000000 0.00000000 0.00000000 15.00000000" energy_frozen_part=0.00000000 Properties=species:S:1:pos:R:3:velocities:R:3:Z:I:1
H        12.18020142      12.88758169       9.48129352         0.00000000       0.00000000       0.00000000          1
H         2.75802581       0.45266983      13.92899970         0.00000000       0.00000000       0.00000000          1
H        12.52726425       0.51386561       2.59161187         0.00000000       0.00000000       0.00000000          1
H         9.64165200       2.16114337      10.04731151         0.00000000       0.00000000       0.00000000          1
H        12.42192028       8.96914671       5.70033979         0.00000000       0.00000000       0.00000000          1
H        12.96084686      12.15518980       4.70084140         0.00000000       0.00000000       0.00000000          1
6
pbc=[F, F, F] list_num_par=6 energy=-0.06941601 iter=199 frozen=false Lattice="15.00000000 0.00000000 0.00000000 0.00000000 15.00000000 0.00000000 0.00000000 0.00000000 15.00000000" energy_frozen_part=0.00000000 Properties=species:S:1:pos:R:3:velocities:R:3:Z:I:1
H        11.30134916       3.20023157       7.41391870         0.00000000       0.00000000       0.00000000          1
H         3.26766014       8.78403924       7.64789072         0.00000000       0.00000000       0.00000000          1
H         4.45178462       1.82779284      14.11156853         0.00000000       0.00000000       0.00000000          1
H         4.45012145       4.32280372       1.22876309         0.00000000       0.00000000       0.00000000          1
H         7.03579184       7.43098067       8.84160296         0.00000000       0.00000000       0.00000000          1
H        12.51278955       2.32752998      10.53012098         0.00000000       0.00000000       0.00000000          1
6
pbc=[F, F, F] list_num_par=6 energy=-0.07609387 iter=209 frozen=false Lattice="15.00000000 0.00000000 0.00000000 0.00000000 15.00000000 0.00000000 0.00000000 0.00000000 15.00000000" energy_frozen_part=0.00000000 Properties=species:S:1:pos:R:3:velocities:R:3:Z:I:1
H        13.42671879       3.20143529       5.06086390         0.00000000       0.00000000       0.00000000          1
H         2.57133130       8.29413178       9.48886807         0.00000000       0.00000000       0.00000000          1
H        12.14207307       1.23102635      12.30764215         0.00000000       0.00000000       0.00000000          1
H         0.46867790       7.24111888       0.38698209         0.00000000       0.00000000       0.00000000          1
H         3.71588739       1.00589391      11.92945436         0.00000000       0.00000000       0.00000000          1
H        13.04731989       2.07161627       9.25004384         0.00000000       0.00000000       0.00000000          1
6
pbc=[F, F, F] list_num_par=6 energy=-0.08165085 iter=219 frozen=false Lattice="15.00000000 0.00000000 0.00000000 0.00000000 15.00000000 0.00000000 0.00000000 0.00000000 15.00000000" energy_frozen_part=0.00000000 Properties=species:S:1:pos:R:3:velocities:R:3:Z:I:1
H         0.65663935       2.31302059      11.95089157         0.00000000       0.00000000       0.00000000          1
H         1.66061984       1.03401054       9.92109303         0.00000000       0.00000000       0.00000000          1
H         2.93925779       6.17337051      10.69203765         0.00000000       0.00000000       0.00000000          1
H        10.88777696       8.78613908      13.24522398         0.00000000       0.00000000       0.00000000          1
H        13.41378350      12.87498017       9.47492810         0.00000000       0.00000000       0.00000000          1
H         2.09950976       4.98676739       0.69894387         0.00000000       0.00000000       0.00000000          1
6
pbc=[F, F, F] list_num_par=6 energy=-0.08805517 iter=229 frozen=false Lattice="15.00000000 0.00000000 0.00000000 0.00000000 15.00000000 0.00000000 0.00000000 0.00000000 15.00000000" energy_frozen_part=0.00000000 Properties=species:S:1:pos:R:3:velocities:R:3:Z:I:1
H         7.35482769      13.51855114       0.17278462         0.00000000       0.00000000       0.00000000          1
H        11.18482691       8.83144928       6.00382031         0.00000000       0.00000000       0.00000000          1
H         2.90200101      10.95421880       5.83626509         0.00000000       0.00000000       0.00000000          1
H        14.91540967      13.24467114      12.70187778         0.00000000       0.00000000       0.00000000          1
H         1.26976011      11.53592786       7.83411428         0.00000000       0.00000000       0.00000000          1
H         1.10643840       8.42559779      12.00014901         0.00000000       0.00000000       0.00000000          1
6
pbc=[F, F, F] list_num_par=6 energy=-0.09115762 iter=239 frozen=false Lattice="15.00000000 0.00000000 0.00000000 0.00000000 15.00000000 0.00000000 0.00000000 0.00000000 15.00000000" energy_frozen_part=0.00000000 Properties=species:S:1:pos:R:3:velocities:R:3:Z:I:1
H         9.65630142       0.82648699       6.97322442         0.00000000       0.00000000       0.00000000          1
H         0.11636946      14.89933925       5.64086244         0.00000000       0.00000000       0.00000000          1
H         3.79508322      10.06359801       8.73415505         0.00000000       0.00000000       0.00000000          1
H        11.34293821      13.27413096      10.90613474         0.00000000       0.00000000       0.00000000          1
H        10.79481433       4.64796193       2.60801322         0.00000000       0.00000000       0.00000000          1
H        10.43459330      10.87261781      12.48852322         0.00000000       0.00000000       0.00000000          1
6
pbc=[F, F, F] list_num_par=6 energy=-0.09330750 iter=249 frozen=false Lattice="15.00000000 0.00000000 0.00000000 0.00000000 15.00000000 0.00000000 0.00000000 0.00000000 15.00000000" energy_frozen_part=0.00000000 Properties=species:S:1:pos:R:3:velocities:R:3:Z:I:1
H         5.31058999      13.57828865       9.09801606         0.00000000       0.00000000       0.00000000          1
H         9.62025688      12.64519712       2.49369628         0.00000000       0.00000000       0.00000000          1
H         8.45763601       3.06453279      11.34404572         0.00000000       0.00000000       0.00000000          1
H        13.69093270      10.73074561      10.09805741         0.00000000       0.00000000       0.00000000          1
H         7.97416573      14.54166074       2.36389454         0.00000000       0.00000000       0.00000000          1
H         7.38776680      14.98511024       7.06901124         0.00000000       0.00000000       0.00000000          1
6
pbc=[F, F, F] list_num_par=6 energy=-0.09978202 iter=259 frozen=false Lattice="15.00000000 0.00000000 0.00000000 0.00000000 15.00000000 0.00000000 0.00000000 0.00000000 15.00000000" energy_frozen_part=0.00000000 Properties=species:S:1:pos:R:3:velocities:R:3:Z:I:1
H        14.99922100      12.33681674       1.47264757         0.00000000       0.00000000       0.00000000          1
H         4.41294138       5.22795303      10.21009051         0.00000000       0.00000000       0.00000000          1
H        10.35134157       7.08215862       0.92761199         0.00000000       0.00000000       0.00000000          1
H        12.71634476       7.50446745      14.04869338         0.00000000       0.00000000       0.00000000          1
H         7.52939346       7.59203911       0.78477886         0.00000000       0.00000000       0.00000000          1
H        10.79051897      14.17457728       7.01930335         0.00000000       0.00000000       0.00000000          1
6
pbc=[F, F, F] list_num_par=6 energy=-0.10153622 iter=269 frozen=false Lattice="15.00000000 0.00000000 0.00000000 0.00000000 15.00000000 0.00000000 0.00000000 0.00000000 15.00000000" energy_frozen_part=0.00000000 Properties=species:S:1:pos:R:3:velocities:R:3:Z:I:1
H         1.77866180       5.99992564      14.19404783         0.00000000       0.00000000       0.00000000          1
H         4.76257357       0.79618737       0.58858657         0.00000000       0.00000000       0.00000000          1
H        12.28301451       5.00941520      14.62701219         0.00000000       0.00000000       0.00000000          1
H         7.66484340      14.55018215       9.93493960         0.00000000       0.00000000       0.00000000          1
H        11.37423782       2.95658304       9.22110632         0.00000000       0.00000000       0.00000000          1
H         3.13425642       2.31791591       2.35970562         0.00000000       0.00000000       0.00000000          1
6
pbc=[F, F, F] list_num_par=6 energy=-0.10436274 iter=279 frozen=false Lattice="15.00000000 0.00000000 0.00000000 0.00000000 15.00000000 0.00000000 0.00000000 0.00000000 15.00000000" energy_frozen_part=0.00000000 Properties=species:S:1:pos:R:3:velocities:R:3:Z:I:1
H         0.79273608       8.96279693      10.31438866         0.00000000       0.00000000       0.00000000          1
H         2.64249851       3.75886687       3.97275598         0.00000000       0.00000000       0.00000000          1
H         9.43872167      12.62755908       3.97944249         0.00000000       0.00000000       0.00000000          1
H         0.69115876       8.17890494      14.86128005         0.00000000       0.00000000       0.00000000          1
H        12.20710418       5.05728748       8.81653993         0.00000000       0.00000000       0.00000000          1
H        10.90231369      13.73518279       1.98673693         0.00000000       0.00000000       0.00000000          1
6
pbc=[F, F, F] list_num_par=6 energy=-0.10672302 iter=289 frozen=false Lattice="15.00000000 0.00000000 0.00000000 0.00000000 15.00000000 0.00000000 0.00000000 0.00000000 15.00000000" energy_frozen_part=0.00000000 Properties=species:S:1:pos:R:3:velocities:R:3:Z:I:1
H        12.31889878       8.30431386      11.96420713         0.00000000       0.00000000       0.00000000          1
H        10.34521022      10.10441984      12.26006481         0.00000000       0.00000000       0.00000000          1
H         0.61567108      10.73612053       0.64069748         0.00000000       0.00000000       0.00000000          1
H         1.59482727      11.09093042       2.84205403         0.00000000       0.00000000       0.00000000          1
H         0.63857580       8.02684206       3.75431985         0.00000000       0.00000000       0.00000000          1
H         8.31425016       5.93111195      12.18656326         0.00000000       0.00000000       0.00000000          1
6
pbc=[F, F, F] list_num_par=6 energy=-0.10941712 iter=299 frozen=false Lattice="15.00000000 0.00000000 0.00000000 0.00000000 15.00000000 0.00000000 0.00000000 0.00000000 15.00000000" energy_frozen_part=0.00000000 Properties=species:S:1:pos:R:3:velocities:R:3:Z:I:1
H         8.87449977       4.07939990      12.85442919         0.00000000       0.00000000       0.00000000          1
H         3.92243037       3.75056558       8.53997863         0.00000000       0.00000000       0.00000000          1
H         2.78851013      11.97026904       0.91500707         0.00000000       0.00000000       0.00000000          1
H         3.10709553      10.53005847      10.53832310         0.00000000       0.00000000       0.00000000          1
H        14.60925002       2.46953677      10.59239343         0.00000000       0.00000000       0.00000000          1
H        10.85423213       2.37778081      13.82861589         0.00000000       0.00000000       0.00000000          1
6
pbc=[F, F, F] list_num_par=6 energy=-0.11516110 iter=309 frozen=false Lattice="15.00000000 0.00000000 0.00000000 0.00000000 15.00000000 0.00000000 0.00000000 0.00000000 15.00000000" energy_frozen_part=0.00000000 Properties=species:S:1:pos:R:3:velocities:R:3:Z:I:1
H        10.98658072       1.17918263       3.37644916         0.00000000       0.00000000       0.00000000          1
H         1.34281133      12.22576176      10.82204495         0.00000000       0.00000000       0.00000000          1