6
pbc=[F, F, F] list_num_par=6 frozen=false iter=9 energy=61.44404170 Lattice="15.00000000 0.00000000 0.00000000 0.00000000 15.00000000 0.00000000 0.00000000 0.00000000 15.00000000" energy_frozen_part=0.00000000 Properties=species:S:1:pos:R:3:velocities:R:3:Z:I:1
H         9.15095702      11.37435718       3.79608192         0.00000000       0.00000000       0.00000000          1
H         0.11902267       0.10671973       7.39130896         0.00000000       0.00000000       0.00000000          1
H        10.50142922      14.86605291       9.74636040         0.00000000       0.00000000       0.00000000          1
H         9.36889185       2.71653634      13.83906467         0.00000000       0.00000000       0.00000000          1
H        11.89017451      14.01921696       9.88364942         0.00000000       0.00000000       0.00000000          1
H         3.89643787       0.04757836       3.93210336         0.00000000       0.00000000       0.00000000          1
6
pbc=[F, F, F] list_num_par=6 frozen=false iter=19 energy=0.73952004 Lattice="15.00000000 0.00000000 0.00000000 0.00000000 15.00000000 0.00000000 0.00000000 0.00000000 15.00000000" energy_frozen_part=0.00000000 Properties=species:S:1:pos:R:3:velocities:R:3:Z:I:1
H         0.30166370      12.19104234       3.70006377         0.00000000       0.00000000       0.00000000          1
H         4.11152636       0.00546364      10.97917019         0.00000000       0.00000000       0.00000000          1
H         1.11241546       5.56254563       3.91737134         0.00000000       0.00000000       0.00000000          1
H         1.45847881       5.74337094      13.29897766         0.00000000       0.00000000       0.00000000          1
H         1.62404850       7.13567935       2.41488401         0.00000000       0.00000000       0.00000000          1
H         3.49712675      14.37795764       0.75290729         0.00000000       0.00000000       0.00000000          1
6
pbc=[F, F, F] list_num_par=6 frozen=false iter=29 energy=-0.00318448 Lattice="15.00000000 0.00000000 0.00000000 0.00000000 15.00000000 0.00000000 0.00000000 0.00000000 15.00000000" energy_frozen_part=0.00000000 Properties=species:S:1:pos:R:3:velocities:R:3:Z:I:1
H         5.72732754      12.35004850      10.97908575         0.00000000       0.00000000       0.00000000          1
H         8.19135340       2.67611405       5.19939805         0.00000000       0.00000000       0.00000000          1
H        12.84060276       2.56524170       1.86244651         0.00000000       0.00000000       0.00000000          1
H        13.74019776       5.51866229      14.25114800         0.00000000       0.00000000       0.00000000          1
H        13.73652835      14.35042732       2.55977977         0.00000000       0.00000000       0.00000000          1
H         5.58724674       1.01194312      11.91970202         0.00000000       0.00000000       0.00000000          1
6
pbc=[F, F, F] list_num_par=6 frozen=false iter=39 energy=-0.00777640 Lattice="15.00000000 0.00000000 0.00000000 0.00000000 15.00000000 0.00000000 0.00000000 0.00000000 15.00000000" energy_frozen_part=0.00000000 Properties=species:S:1:pos:R:3:velocities:R:3:Z:I:1
H        11.74431781      13.69083682       1.26771386         0.00000000       0.00000000       0.00000000          1
H        12.85948400       4.85444947       9.82594746         0.00000000       0.00000000       0.00000000          1
H        13.42640901       2.57972308       4.39434040         0.00000000       0.00000000       0.00000000          1
H        11.18399977       8.34591940       1.62742279         0.00000000       0.00000000       0.00000000          1
H         2.11247176       7.04526939       2.73454466         0.00000000       0.00000000       0.00000000          1
H         3.88352134      11.84203215       7.57654270         0.00000000       0.00000000       0.00000000          1
6
pbc=[F, F, F] list_num_par=6 frozen=false iter=49 energy=-0.01197911 Lattice="15.00000000 0.00000000 0.00000000 0.00000000 15.00000000 0.00000000 0.00000000 0.00000000 15.00000000" energy_frozen_part=0.00000000 Properties=species:S:1:pos:R:3:velocities:R:3:Z:I:1
H        12.37283137       2.34946173      12.68601404         0.00000000       0.00000000       0.00000000          1
H         0.55117920       3.43327036      12.36346237         0.00000000       0.00000000       0.00000000          1
H         6.35278312      10.18030989      13.62615871         0.00000000       0.00000000       0.00000000          1
H         7.19112669       7.51987984       7.04788834         0.00000000       0.00000000       0.00000000          1
H         4.96911823       1.56506855       8.66157293         0.00000000       0.00000000       0.00000000          1
H         0.87501429       4.38543536       6.84317746         0.00000000       0.00000000       0.00000000          1
6
pbc=[F, F, F] list_num_par=6 frozen=false iter=59 energy=-0.01542156 Lattice="15.00000000 0.00000000 0.00000000 0.00000000 15.00000000 0.00000000 0.00000000 0.00000000 15.00000000" energy_frozen_part=0.00000000 Properties=species:S:1:pos:R:3:velocities:R:3:Z:I:1
H         8.70289271      12.67288629       6.09477960         0.00000000       0.00000000       0.00000000          1
H         0.28833940      11.60949390      12.22522348         0.00000000       0.00000000       0.00000000          1
H        11.65558474      14.05890867      11.84511499         0.00000000       0.00000000       0.00000000          1
H         4.22239595       8.76776678       5.47390788         0.00000000       0.00000000       0.00000000          1
H        13.88425039       3.00812180       8.24804656         0.00000000       0.00000000       0.00000000          1
H        13.22881051      12.83336600       5.79156834         0.00000000       0.00000000       0.00000000          1
6
pbc=[F, F, F] list_num_par=6 frozen=false iter=69 energy=-0.02072805 Lattice="15.00000000 0.00000000 0.00000000 0.00000000 15.00000000 0.00000000 0.00000000 0.00000000 15.00000000" energy_frozen_part=0.00000000 Properties=species:S:1:pos:R:3:velocities:R:3:Z:I:1
H         5.63145622       8.58666627      13.58971102         0.00000000       0.00000000       0.00000000          1
H         3.08345443       0.33209057      10.41945990         0.00000000       0.00000000       0.00000000          1
H        11.11812458      14.78296864      14.72711759         0.00000000       0.00000000       0.00000000          1
H         0.28267091       7.67108561       0.45381644         0.00000000       0.00000000       0.00000000          1
H         9.14793446       6.72113439       4.87589759         0.00000000       0.00000000       0.00000000          1
H         1.30124359       3.40276823       8.42346576         0.00000000       0.00000000       0.00000000          1
6
pbc=[F, F, F] list_num_par=6 frozen=false iter=79 energy=-0.02491524 Lattice="15.00000000 0.00000000 0.00000000 0.00000000 15.00000000 0.00000000 0.00000000 0.00000000 15.00000000" energy_frozen_part=0.00000000 Properties=species:S:1:pos:R:3:velocities:R:3:Z:I:1
H        12.51938804       2.54331272      11.01292588         0.00000000       0.00000000       0.00000000          1
H         0.02745442       3.15521081       5.43075859         0.00000000       0.00000000       0.00000000          1
H        14.64215168       0.17998806       0.80472031         0.00000000       0.00000000       0.00000000          1
H        11.28451031      11.72860634      14.62664566         0.00000000       0.00000000       0.00000000          1
H         2.14971869       5.56547618       7.99144240         0.00000000       0.00000000       0.00000000          1
H         6.70538423       3.53018201       6.25647208         0.00000000       0.00000000       0.00000000          1
6
pbc=[F, F, F] list_num_par=6 frozen=false iter=89 energy=-0.02664463 Lattice="15.00000000 0.00000000 0.00000000 0.00000000 15.00000000 0.00000000 0.00000000 0.00000000 15.00000000" energy_frozen_part=0.00000000 Properties=species:S:1:pos:R:3:velocities:R:3:Z:I:1
H        13.64970104       0.39244935       4.01722963         0.00000000       0.00000000       0.00000000          1
H         9.98968324      12.52910262       6.79045245         0.00000000       0.00000000       0.00000000          1
H         5.81271556      12.30444687       7.97416644         0.00000000       0.00000000       0.00000000          1
H         9.18755112       9.96342327      14.64801780         0.00000000       0.00000000       0.00000000          1
H         5.94038382      14.37050105       3.59050222         0.00000000       0.00000000       0.00000000          1
H         5.57749505       4.84368050      14.38271709         0.00000000       0.00000000       0.00000000          1
6
pbc=[F, F, F] list_num_par=6 frozen=false iter=99 energy=-0.03238144 Lattice="15.00000000 0.00000000 0.00000000 0.00000000 15.00000000 0.00000000 0.00000000 0.00000000 15.00000000" energy_frozen_part=0.00000000 Properties=species:S:1:pos:R:3:velocities:R:3:Z:I:1
H         1.83657935       5.88669061      10.51329265         0.00000000       0.00000000       0.00000000          1
H         4.73888925       0.91603903       9.28112473         0.00000000       0.00000000       0.00000000          1
H         2.75149799       3.14812068       4.85264203         0.00000000       0.00000000       0.00000000          1
H         8.04835605       2.14841211       7.24867709         0.00000000       0.00000000       0.00000000          1
H        10.74373632      14.64146843      12.48160726         0.00000000       0.00000000       0.00000000          1
H         3.46583573       9.55646797      14.93269677         0.00000000       0.00000000       0.00000000          1
6
pbc=[F, F, F] list_num_par=6 frozen=false iter=109 energy=-0.03767619 Lattice="15.00000000 0.00000000 0.00000000 0.00000000 15.00000000 0.00000000 0.00000000 0.00000000 15.00000000" energy_frozen_part=0.00000000 Properties=species:S:1:pos:R:3:velocities:R:3:Z:I:1
H         7.95778906       8.07665449      10.03591305         0.00000000       0.00000000       0.00000000          1
H         7.35006403      13.14865457       2.36376842         0.00000000       0.00000000       0.00000000          1
H         0.01280467       9.06357462      12.63012427         0.00000000       0.00000000       0.00000000          1
H         4.47410658       1.00632292       6.14987604         0.00000000       0.00000000       0.00000000          1
H        12.87284398       8.78539098       4.45087683         0.00000000       0.00000000       0.00000000          1
H         6.38293860      11.04292353       8.49563360         0.00000000       0.00000000       0.00000000          1
6
pbc=[F, F, F] list_num_par=6 frozen=false iter=119 energy=-0.04081026 Lattice="15.00000000 0.00000000 0.00000000 0.00000000 15.00000000 0.00000000 0.00000000 0.00000000 15.00000000" energy_frozen_part=0.00000000 Properties=species:S:1:pos:R:3:velocities:R:3:Z:I:1
H         3.41834606       6.45538432       2.68030130         0.00000000       0.00000000       0.00000000          1
H        14.58671177       3.72454848      10.23054053         0.00000000       0.00000000       0.00000000          1
H        12.87525982       3.54350968       0.63855959         0.00000000       0.00000000       0.00000000          1
H        13.87305833       9.70052948       7.45134942         0.00000000       0.00000000       0.00000000          1
H         8.12695637      12.20572608       7.29382358         0.00000000       0.00000000       0.00000000          1
H        12.33147677       2.58848618       9.89920386         0.00000000       0.00000000       0.00000000          1
6
pbc=[F, F, F] list_num_par=6 frozen=false iter=129 energy=-0.04631918 Lattice="15.00000000 0.00000000 0.00000000 0.00000000 15.00000000 0.00000000 0.00000000 0.00000000 15.00000000" energy_frozen_part=0.00000000 Properties=species:S:1:pos:R:3:velocities:R:3:Z:I:1
H         4.33043024      14.56489811      10.96652202         0.00000000       0.00000000       0.00000000          1
H        11.98646271      13.63963444       8.16480880         0.00000000       0.00000000       0.00000000          1
H         2.99832798       8.02381079       5.77680602         0.00000000       0.00000000       0.00000000          1
H         5.96605546       5.58910553      12.81465687         0.00000000       0.00000000       0.00000000          1
H         9.30035536      10.61916968      12.56378259         0.00000000       0.00000000       0.00000000          1
H        13.53791013      11.32082088      10.68180390         0.00000000       0.00000000       0.00000000          1
6
pbc=[F, F, F] list_num_par=6 frozen=false iter=139 energy=-0.05079898 Lattice="15.00000000 0.00000000 0.00000000 0.00000000 15.00000000 0.00000000 0.00000000 0.00000000 15.00000000" energy_frozen_part=0.00000000 Properties=species:S:1:pos:R:3:velocities:R:3:Z:I:1
H        13.58309120      14.92366171      10.04697947         0.00000000       0.00000000       0.00000000          1
H        11.39171286       9.35708538       7.93042568         0.00000000       0.00000000       0.00000000          1
H         3.45255758      14.04970187      12.36663871         0.00000000       0.00000000       0.00000000          1
H         8.90118838      11.14197245       9.79154243         0.00000000       0.00000000       0.00000000          1
H        10.23249221       4.21927647      10.59453451         0.00000000       0.00000000       0.00000000          1
H        13.67484989      12.66467025       3.47398516         0.00000000       0.00000000       0.00000000          1
6
pbc=[F, F, F] list_num_par=6 frozen=false iter=149 energy=-0.05781843 Lattice="15.00000000 0.00000000 0.00000000 0.00000000 15.00000000 0.00000000 0.00000000 0.00000000 15.00000000" energy_frozen_part=0.00000000 Properties=species:S:1:pos:R:3:velocities:R:3:Z:I:1
H        12.62034046       2.79600180       6.59061648         0.00000000       0.00000000       0.00000000          1
H        14.67086366      11.17252679       2.49081568         0.00000000       0.00000000       0.00000000          1
H        12.57168654       0.22723721       3.16860968         0.00000000       0.00000000       0.00000000          1
H         8.73270153       5.87161426      10.27396200         0.00000000       0.00000000       0.00000000          1
H         2.38581577      12.99321629       8.69315778         0.00000000       0.00000000       0.00000000          1
H        11.29539831      12.23923028       3.02283805         0.00000000       0.00000000       0.00000000          1
6
pbc=[F, F, F] list_num_par=6 frozen=false iter=159 energy=-0.06303012 Lattice="15.00000000 0.00000000 0.00000000 0.00000000 15.00000000 0.00000000 0.00000000 0.00000000 15.00000000" energy_frozen_part=0.00000000 Properties=species:S:1:pos:R:3:velocities:R:3:Z:I:1
H        11.77111554      13.57173217       6.56675334         0.00000000       0.00000000       0.00000000          1
H         8.12232027       0.08252415       5.64928502         0.00000000       0.00000000       0.00000000          1
H         2.38235750      10.51366904       1.80616503         0.00000000       0.00000000       0.00000000          1
H        14.30491684      13.83846307       4.46614799         0.00000000       0.00000000       0.00000000          1
H        12.35664778       8.10688374      13.84138257         0.00000000       0.00000000       0.00000000          1
H         0.46949064      13.38204972       6.75992702         0.00000000       0.00000000       0.00000000          1
6
pbc=[F, F, F] list_num_par=6 frozen=false iter=169 energy=-0.06743654 Lattice="15.00000000 0.00000000 0.00000000 0.00000000 15.00000000 0.00000000 0.00000000 0.00000000 15.00000000" energy_frozen_part=0.00000000 Properties=species:S:1:pos:R:3:velocities:R:3:Z:I:1
H        11.04754622       1.68598798       6.01198182         0.00000000       0.00000000       0.00000000          1
H         0.59269766      11.62989990       6.03972759         0.00000000       0.00000000       0.00000000          1
H        12.25268678       9.84596505       5.14250241         0.00000000       0.00000000       0.00000000          1
H         5.60889690      10.67534703      14.07622037         0.00000000       0.00000000       0.00000000          1
H         2.56964968      11.66328512      14.60766073         0.00000000       0.00000000       0.00000000          1
H         7.73873257      12.76022329       0.08755669         0.00000000       0.00000000       0.00000000          1
6
pbc=[F, F, F] list_num_par=6 frozen=false iter=179 energy=-0.07052229 Lattice="15.00000000 0.00000000 0.00000000 0.00000000 15.00000000 0.00000000 0.00000000 0.00000000 15.00000000" energy_frozen_part=0.00000000 Properties=species:S:1:pos:R:3:velocities:R:3:Z:I:1
H         3.58392998       4.86282086       0.74970369         0.00000000       0.00000000       0.00000000          1
H        11.96192319      13.37416212       6.66505060         0.00000000       0.00000000       0.00000000          1
H        12.38272690       1.44743726       0.48213320         0.00000000       0.00000000       0.00000000          1
H        10.20124447      11.26781755      11.76413960         0.00000000       0.00000000       0.00000000          1
H        13.86459111      14.94807844       4.58975957         0.00000000       0.00000000       0.00000000          1
H        13.89711318       3.06894859      11.97167580         0.00000000       0.00000000       0.00000000          1
6
pbc=[F, F, F] list_num_par=6 frozen=false iter=189 energy=-0.07605918 Lattice="15.00000000 0.00000000 0.00000000 0.00000000 15.00000000 0.00000000 0.00000000 0.00000000 15.00000000" energy_frozen_part=0.00000000 Properties=species:S:1:pos:R:3:velocities:R:3:Z:I:1
H        10.44226270       6.00028692      12.86631308         0.00000000       0.00000000       0.00000000          1
H         3.39377226       7.52549793      12.20429690         0.00000000       0.00000000       0.00000000          1
H         5.67656569       6.10537320       2.11343598         0.00000000       0.00000000       0.00000000          1
H         4.98049813       4.65499198      11.00624201         0.00000000       0.00000000       0.00000000          1
H        14.22879270      12.44858106       0.45899238         0.00000000       0.00000000       0.00000000          1
H         4.82798811       2.70307168       3.78779000         0.00000000       0.00000000       0.00000000          1
6
pbc=[F, F, F] list_num_par=6 frozen=false iter=199 energy=-0.08011238 Lattice="15.00000000 0.00000000 0.00000000 0.00000000 15.00000000 0.00000000 0.00000000 0.00000000 15.00000000" energy_frozen_part=0.00000000 Properties=species:S:1:pos:R:3:velocities:R:3:Z:I:1
H         1.03774777       7.35307286       6.52819553         0.00000000       0.00000000       0.00000000          1
H         5.18499127       0.02497722       7.88100817         0.00000000       0.00000000       0.00000000          1
H         7.50027815       6.67451205       2.32365482         0.00000000       0.00000000       0.00000000          1
H        11.10695975       1.89666336       0.87910573         0.00000000       0.00000000       0.00000000          1
H         8.61675259      11.97111792      13.71348134         0.00000000       0.00000000       0.00000000          1
H         2.88421437       7.44833952       3.93004607         0.00000000       0.00000000       0.00000000          1
6
pbc=[F, F, F] list_num_par=6 frozen=false iter=209 energy=-0.08555510 Lattice="15.00000000 0.00000000 0.00000000 0.00000000 15.00000000 0.00000000 0.00000000 0.00000000 15.00000000" energy_frozen_part=0.00000000 Properties=species:S:1:pos:R:3:velocities:R:3:Z:I:1
H        13.60661873      11.28325705      10.90111042         0.00000000       0.00000000       0.00000000          1
H        10.65964268      10.98406544       2.84807962         0.00000000       0.00000000       0.00000000          1
H         4.84946745      14.28507875      12.90044011         0.00000000       0.00000000       0.00000000          1
H         6.03551256       8.19817409       9.30075369         0.00000000       0.00000000       0.00000000          1
H        12.49117154       0.41113109      12.53314170         0.00000000       0.00000000       0.00000000          1
H        10.36756152       8.57209489       1.77874816         0.00000000       0.00000000       0.00000000          1
6
pbc=[F, F, F] list_num_par=6 frozen=false iter=219 energy=-0.08742093 Lattice="15.00000000 0.00000000 0.00000000 0.00000000 15.00000000 0.00000000 0.00000000 0.00000000 15.00000000" energy_frozen_part=0.00000000 Properties=species:S:1:pos:R:3:velocities:R:3:Z:I:1
H         9.14439479      11.67904942       0.63614084         0.00000000       0.00000000       0.00000000          1
H        11.65914739       2.91004189      10.97682965         0.00000000       0.00000000       0.00000000          1
H         3.39803228      14.17240603       2.70150350         0.00000000       0.00000000       0.00000000          1
H         0.40425886      12.97368875       1.87077973         0.00000000       0.00000000       0.00000000          1
H        11.87900947       2.79784462       7.06796298         0.00000000       0.00000000       0.00000000          1
H        11.55177932       5.26567062       1.38420926         0.00000000       0.00000000       0.00000000          1
6
pbc=[F, F, F] list_num_par=6 frozen=false iter=229 energy=-0.09144093 Lattice="15.00000000 0.00000000 0.00000000 0.00000000 15.00000000 0.00000000 0.00000000 0.00000000 15.00000000" energy_frozen_part=0.00000000 Properties=species:S:1:pos:R:3:velocities:R:3:Z:I:1
H         9.33309494       8.43894469       6.89480609         0.00000000       0.00000000       0.00000000          1
H         2.64309218      12.65369557      13.93188409         0.00000000       0.00000000       0.00000000          1
H         8.38407188      10.71698732       4.67245738         0.00000000       0.00000000       0.00000000          1
H         5.80183094      14.42979919       9.91761435         0.00000000       0.00000000       0.00000000          1
H         8.71550247      10.64028914      10.51272154         0.00000000       0.00000000       0.00000000          1
H        13.12987336       9.03751178       0.29342350         0.00000000       0.00000000       0.00000000          1
6
pbc=[F, F, F] list_num_par=6 frozen=false iter=239 energy=-0.09438273 Lattice="15.00000000 0.00000000 0.00000000 0.00000000 15.00000000 0.00000000 0.00000000 0.00000000 15.00000000" energy_frozen_part=0.00000000 Properties=species:S:1:pos:R:3:velocities:R:3:Z:I:1
H        13.11437069      13.02318449       0.66835198         0.00000000       0.00000000       0.00000000          1
H         2.81514775       0.77780719       7.93048050         0.00000000       0.00000000       0.00000000          1
H         1.05885955      13.13864452       4.36192869         0.00000000       0.00000000       0.00000000          1
H        12.20459375      12.92656574       7.30075799         0.00000000       0.00000000       0.00000000          1
H        13.37810788       1.30409320       9.53078062         0.00000000       0.00000000       0.00000000          1
H        11.01859445      11.40014378       1.14664638         0.00000000       0.00000000       0.00000000          1
6
pbc=[F, F, F] list_num_par=6 frozen=false iter=249 energy=-0.09705474 Lattice="15.00000000 0.00000000 0.00000000 0.00000000 15.00000000 0.00000000 0.00000000 0.00000000 15.00000000" energy_frozen_part=0.00000000 Properties=species:S:1:pos:R:3:velocities:R:3:Z:I:1
H         6.00789615       4.79083395       8.36998875         0.00000000       0.00000000       0.00000000          1
H        12.57071236       7.99322596       5.30539504         0.00000000       0.00000000       0.00000000          1
H         7.79251463       1.35345463       7.97250732         0.00000000       0.00000000       0.00000000          1
H         7.05755721       8.66542691       4.47709420         0.00000000       0.00000000       0.00000000          1
H         0.05657406       4.68118851      14.66132426         0.00000000       0.00000000       0.00000000          1
H         0.15773249       6.44452773      11.90485893         0.00000000       0.00000000       0.00000000          1
6
pbc=[F, F, F] list_num_par=6 frozen=false iter=259 energy=-0.09902817 Lattice="15.00000000 0.00000000 0.00000000 0.00000000 15.00000000 0.00000000 0.00000000 0.00000000 15.00000000" energy_frozen_part=0.00000000 Properties=species:S:1:pos:R:3:velocities:R:3:Z:I:1
H         2.37018727       2.96564327      10.67485670         0.00000000       0.00000000       0.00000000          1
H         4.63045304       0.77272434       7.28425527         0.00000000       0.00000000       0.00000000          1
H         0.94280006       3.87135105       3.41515051         0.00000000       0.00000000       0.00000000          1
H         7.23424109       2.26048631       7.87912518         0.00000000       0.00000000       0.00000000          1
H        12.00330418      14.37041797      11.25910747         0.00000000       0.00000000       0.00000000          1
H         1.97407114       9.35245559      14.85161787         0.00000000       0.00000000       0.00000000          1
6
pbc=[F, F, F] list_num_par=6 frozen=false iter=269 energy=-0.10035933 Lattice="15.00000000 0.00000000 0.00000000 0.00000000 15.00000000 0.00000000 0.00000000 0.00000000 15.00000000" energy_frozen_part=0.00000000 Properties=species:S:1:pos:R:3:velocities:R:3:Z:I:1
H        14.08570351      10.35401875      10.60848764         0.00000000       0.00000000       0.00000000          1
H         3.45547387      10.21648632       4.23424179         0.00000000       0.00000000       0.00000000          1
H         2.08812689      12.50011234       5.06560864         0.00000000       0.00000000       0.00000000          1
H         2.64561124       1.73079861       4.95963902         0.00000000       0.00000000       0.00000000          1
H         5.98798429      13.53591970      12.79851770         0.00000000       0.00000000       0.00000000          1
H         6.44855385       5.06888494      13.20664839         0.00000000       0.00000000       0.00000000          1
6
pbc=[F, F, F] list_num_par=6 frozen=false iter=279 energy=-0.10300670 Lattice="15.00000000 0.00000000 0.00000000 0.00000000 15.00000000 0.00000000 0.00000000 0.00000000 15.00000000" energy_frozen_part=0.00000000 Properties=species:S:1:pos:R:3:velocities:R:3:Z:I:1
H        13.69509693       0.96336341      12.53391090         0.00000000       0.00000000       0.00000000          1
H        12.76324014       3.30308887      13.51133940         0.00000000       0.00000000       0.00000000          1
H         3.61811791       9.00732900       4.54451223         0.00000000       0.00000000       0.00000000          1
H         7.96407410       1.94893701      13.62114240         0.00000000       0.00000000       0.00000000          1
H         2.51555407       5.82673291      11.52290301         0.00000000       0.00000000       0.00000000          1
H         9.48608070      14.42808794       4.62966509         0.00000000       0.00000000       0.00000000          1
6
pbc=[F, F, F] list_num_par=6 frozen=false iter=289 energy=-0.10544873 Lattice="15.00000000 0.00000000 0.00000000 0.00000000 15.00000000 0.00000000 0.00000000 0.00000000 15.00000000" energy_frozen_part=0.00000000 Properties=species:S:1:pos:R:3:velocities:R:3:Z:I:1
H         4.78343113      11.72724641       9.42511440         0.00000000       0.00000000       0.00000000          1
H         5.93692771       9.22531048       9.99108203         0.00000000       0.00000000       0.00000000          1
H        13.63963707      10.32662343       4.49912996         0.00000000       0.00000000       0.00000000          1
H        11.91613792      14.09564376       1.24325017         0.00000000       0.00000000       0.00000000          1
H        10.62240011      14.29490444      13.01041163         0.00000000       0.00000000       0.00000000          1
H         1.14227130       9.25113722       1.77622340         0.00000000       0.00000000       0.00000000          1
6
pbc=[F, F, F] list_num_par=6 frozen=false iter=299 energy=-0.10691688 Lattice="15.00000000 0.00000000 0.00000000 0.00000000 15.00000000 0.00000000 0.00000000 0.00000000 15.00000000" energy_frozen_part=0.00000000 Properties=species:S:1:pos:R:3:velocities:R:3:Z:I:1
H        10.90136470       7.78316917      10.31079789         0.00000000       0.00000000       0.00000000          1
H        10.57624408       5.62939666       1.44751948         0.00000000       0.00000000       0.00000000          1
H         1.58360459       2.92196967       0.13134028         0.00000000       0.00000000       0.00000000          1
H         3.56852102       9.86380290      12.42345281         0.00000000       0.00000000       0.00000000          1
H         8.61030715       9.61406507      11.09329350         0.00000000       0.00000000       0.00000000          1
H         4.59686995       1.54960604       2.81452194         0.00000000       0.00000000       0.00000000          1
6
pbc=[F, F, F] list_num_par=6 frozen=false iter=309 energy=-0.10879042 Lattice="15.00000000 0.00000000 0.00000000 0.00000000 15.00000000 0.00000000 0.00000000 0.00000000 15.00000000" energy_frozen_part=0.00000000 Properties=species:S:1:pos:R:3:velocities:R:3:Z:I:1
H         7.48661330       3.94496574       7.87740951         0.00000000       0.00000000       0.00000000          1
H        10.80193374       9.23182586       3.00002133         0.00000000       0.00000000       0.00000000          1