6
pbc=[F, F, F] list_num_par=6 energy=325.22566604 iter=9 frozen=false Lattice="15.00000000 0.00000000 0.00000000 0.00000000 15.00000000 0.00000000 0.00000000 0.00000000 15.00000000" energy_frozen_part=0.00000000 Properties=species:S:1:pos:R:3:velocities:R:3:Z:I:1
H        11.91348746      13.50844279       9.93634711         0.00000000       0.00000000       0.00000000          1
H        11.45680642      13.61291412      11.28333673         0.00000000       0.00000000       0.00000000          1
H         1.59783972       7.73488368      13.21145909         0.00000000       0.00000000       0.00000000          1
H        13.77506492       1.89448949       5.22998272         0.00000000       0.00000000       0.00000000          1
H         8.81148064       6.84516207       3.63237656         0.00000000       0.00000000       0.00000000          1
H         9.71593595       4.07918918       8.51304722         0.00000000       0.00000000       0.00000000          1
6
pbc=[F, F, F] list_num_par=6 energy=0.01760661 iter=19 frozen=false Lattice="15.00000000 0.00000000 0.00000000 0.00000000 15.00000000 0.00000000 0.00000000 0.00000000 15.00000000" energy_frozen_part=0.00000000 Properties=species:S:1:pos:R:3:velocities:R:3:Z:I:1
H         4.23911884       0.61353272      13.50372030         0.00000000       0.00000000       0.00000000          1
H         8.34393558       0.72588458       2.03331114         0.00000000       0.00000000       0.00000000          1
H        13.05595097      11.21628683       7.39075710         0.00000000       0.00000000       0.00000000          1
H         6.99899858       7.81275629      13.91267905         0.00000000       0.00000000       0.00000000          1
H         5.61847187       9.68696288      14.76694718         0.00000000       0.00000000       0.00000000          1
H         7.42157307       0.38290622       8.09990225         0.00000000       0.00000000       0.00000000          1
6
pbc=[F, F, F] list_num_par=6 energy=-0.00456040 iter=29 frozen=false Lattice="15.00000000 0.00000000 0.00000000 0.00000000 15.00000000 0.00000000 0.00000000 0.00000000 15.00000000" energy_frozen_part=0.00000000 Properties=species:S:1:pos:R:3:velocities:R:3:Z:I:1
H         2.13385707      13.48999137      13.80747317         0.00000000       0.00000000       0.00000000          1
H         6.55361070       1.48375165      12.14947154         0.00000000       0.00000000       0.00000000          1
H         3.92733669      10.52763355       6.52875320         0.00000000       0.00000000       0.00000000          1
H         1.08722471       4.86625078       8.14741009         0.00000000       0.00000000       0.00000000          1
H         7.17386677       0.83989648       5.02301995         0.00000000       0.00000000       0.00000000          1
H        10.87473687       5.80806658       5.80478782         0.00000000       0.00000000       0.00000000          1
6
pbc=[F, F, F] list_num_par=6 energy=-0.00646775 iter=39 frozen=false Lattice="15.00000000 0.00000000 0.00000000 0.00000000 15.00000000 0.00000000 0.00000000 0.00000000 15.00000000" energy_frozen_part=0.00000000 Properties=species:S:1:pos:R:3:velocities:R:3:Z:I:1
H         8.68700670      14.95945504      11.19233508         0.00000000       0.00000000       0.00000000          1
H        11.30660676      10.16849595       2.88903509         0.00000000       0.00000000       0.00000000          1
H         5.35680656       1.47725155       4.68077027         0.00000000       0.00000000       0.00000000          1
H         0.07924883       0.04794060       6.12258889         0.00000000       0.00000000       0.00000000          1
H         2.15411715      10.96591759      11.86805107         0.00000000       0.00000000       0.00000000          1
H        10.71315063       4.16564556       2.46388509         0.00000000       0.00000000       0.00000000          1
6
pbc=[F, F, F] list_num_par=6 energy=-0.00848295 iter=49 frozen=false Lattice="15.00000000 0.00000000 0.00000000 0.00000000 15.00000000 0.00000000 0.00000000 0.00000000 15.00000000" energy_frozen_part=0.00000000 Properties=species:S:1:pos:R:3:velocities:R:3:Z:I:1
H         6.05165170       9.11271545       1.44525630         0.00000000       0.00000000       0.00000000          1
H         8.51213888       0.06107044       7.24721106         0.00000000       0.00000000       0.00000000          1
H         5.44453417      11.22429235      10.25905228         0.00000000       0.00000000       0.00000000          1
H         5.41973066       4.20341145       2.34811362         0.00000000       0.00000000       0.00000000          1
H        14.09629586       0.70971941       4.99573936         0.00000000       0.00000000       0.00000000          1
H        13.92475393       8.08677376      13.13988310         0.00000000       0.00000000       0.00000000          1
6
pbc=[F, F, F] list_num_par=6 energy=-0.01164642 iter=59 frozen=false Lattice="15.00000000 0.00000000 0.00000000 0.00000000 15.00000000 0.00000000 0.00000000 0.00000000 15.00000000" energy_frozen_part=0.00000000 Properties=species:S:1:pos:R:3:velocities:R:3:Z:I:1
H         6.61497614       3.00377599       3.41772623         0.00000000       0.00000000       0.00000000          1
H         6.83627542      14.42683124       7.93417906         0.00000000       0.00000000       0.00000000          1
H         4.54970333       4.84770328       7.89807834         0.00000000       0.00000000       0.00000000          1
H        13.72298908      10.55835441       8.97911823         0.00000000       0.00000000       0.00000000          1
H         4.15646112      11.00038933       5.07951318         0.00000000       0.00000000       0.00000000          1
H        11.73703410      14.24937551      14.38345017         0.00000000       0.00000000       0.00000000          1
6
pbc=[F, F, F] list_num_par=6 energy=-0.01743336 iter=69 frozen=false Lattice="15.00000000 0.00000000 0.00000000 0.00000000 15.00000000 0.00000000 0.00000000 0.00000000 15.00000000" energy_frozen_part=0.00000000 Properties=species:S:1:pos:R:3:velocities:R:3:Z:I:1
H         4.84306913      11.74854517      13.56489027         0.00000000       0.00000000       0.00000000          1
H         2.52618010      14.59584994       9.20405842         0.00000000       0.00000000       0.00000000          1
H         9.88858234       4.26914257      12.19669683         0.00000000       0.00000000       0.00000000          1
H        13.36409237       2.76335602       9.07635719         0.00000000       0.00000000       0.00000000          1
H         3.95004223       2.51802028       6.97383322         0.00000000       0.00000000       0.00000000          1
H         9.03843346       8.91220248      10.16860201         0.00000000       0.00000000       0.00000000          1
6
pbc=[F, F, F] list_num_par=6 energy=-0.02021305 iter=79 frozen=false Lattice="15.00000000 0.00000000 0.00000000 0.00000000 15.00000000 0.00000000 0.00000000 0.00000000 15.00000000" energy_frozen_part=0.00000000 Properties=species:S:1:pos:R:3:velocities:R:3:Z:I:1
H         4.91698550      11.79342037      13.49899097         0.00000000       0.00000000       0.00000000          1
H         2.55505053      14.56353046       9.23554486         0.00000000       0.00000000       0.00000000          1
H         9.93996739       4.30556384      12.12143192         0.00000000       0.00000000       0.00000000          1
H        13.28612918       2.76218705       9.10839309         0.00000000       0.00000000       0.00000000          1
H         3.82888398       2.50043030       7.03878244         0.00000000       0.00000000       0.00000000          1
H         8.97748728       8.82488124      10.21779371         0.00000000       0.00000000       0.00000000          1
6
pbc=[F, F, F] list_num_par=6 energy=-0.02526878 iter=89 frozen=false Lattice="15.00000000 0.00000000 0.00000000 0.00000000 15.00000000 0.00000000 0.00000000 0.00000000 15.00000000" energy_frozen_part=0.00000000 Properties=species:S:1:pos:R:3:velocities:R:3:Z:I:1
H         5.72296242       1.07557249       6.88788199         0.00000000       0.00000000       0.00000000          1
H        13.31037313      14.60487177       3.49229667         0.00000000       0.00000000       0.00000000          1
H         9.20084266       9.25007354      10.18916832         0.00000000       0.00000000       0.00000000          1
H        14.37066492      14.87646377      14.78954944         0.00000000       0.00000000       0.00000000          1
H         2.48474998       0.90278867       9.12353316         0.00000000       0.00000000       0.00000000          1
H        10.83608078       4.40423436       3.14783390         0.00000000       0.00000000       0.00000000          1
6
pbc=[F, F, F] list_num_par=6 energy=-0.02967053 iter=99 frozen=false Lattice="15.00000000 0.00000000 0.00000000 0.00000000 15.00000000 0.00000000 0.00000000 0.00000000 15.00000000" energy_frozen_part=0.00000000 Properties=species:S:1:pos:R:3:velocities:R:3:Z:I:1
H        11.71170447       8.02771480      13.72608609         0.00000000       0.00000000       0.00000000          1
H        10.30703037       1.11932183      13.84076248         0.00000000       0.00000000       0.00000000          1
H        14.29803510       8.36807889      10.88863980         0.00000000       0.00000000       0.00000000          1
H         6.12693362       4.82406969       1.98357795         0.00000000       0.00000000       0.00000000          1
H        13.74097696       0.28931300       8.39110626         0.00000000       0.00000000       0.00000000          1
H         3.25218372      13.74090433       6.89082470         0.00000000       0.00000000       0.00000000          1
6
pbc=[F, F, F] list_num_par=6 energy=-0.03156742 iter=109 frozen=false Lattice="15.00000000 0.00000000 0.00000000 0.00000000 15.00000000 0.00000000 0.00000000 0.00000000 15.00000000" energy_frozen_part=0.00000000 Properties=species:S:1:pos:R:3:velocities:R:3:Z:I:1
H         1.57648815       6.95533097       3.76776114         0.00000000       0.00000000       0.00000000          1
H         6.07257853       3.96580932       3.84638883         0.00000000       0.00000000       0.00000000          1
H         5.20662019      13.93539372       0.42539918         0.00000000       0.00000000       0.00000000          1
H         8.46017708       7.44242425      11.56407417         0.00000000       0.00000000       0.00000000          1
H        14.87150017      11.35516112       8.44249552         0.00000000       0.00000000       0.00000000          1
H         3.19142760       2.77333261       1.32093539         0.00000000       0.00000000       0.00000000          1
6
pbc=[F, F, F] list_num_par=6 energy=-0.03540665 iter=119 frozen=false Lattice="15.00000000 0.00000000 0.00000000 0.00000000 15.00000000 0.00000000 0.00000000 0.00000000 15.00000000" energy_frozen_part=0.00000000 Properties=species:S:1:pos:R:3:velocities:R:3:Z:I:1
H         4.17716322       8.55636189       1.79545373         0.00000000       0.00000000       0.00000000          1
H        14.03583465       4.49846973       2.53686168         0.00000000       0.00000000       0.00000000          1
H         7.57436529       5.72598708       4.78774206         0.00000000       0.00000000       0.00000000          1
H        13.91893352       9.17177043       1.47923082         0.00000000       0.00000000       0.00000000          1
H         9.29388742       8.84461805       1.39884494         0.00000000       0.00000000       0.00000000          1
H        13.96454407       1.93584022      14.99096704         0.00000000       0.00000000       0.00000000          1
6
pbc=[F, F, F] list_num_par=6 energy=-0.04278921 iter=129 frozen=false Lattice="15.00000000 0.00000000 0.00000000 0.00000000 15.00000000 0.00000000 0.00000000 0.00000000 15.00000000" energy_frozen_part=0.00000000 Properties=species:S:1:pos:R:3:velocities:R:3:Z:I:1
H        13.89611290       7.85377420       2.41721485         0.00000000       0.00000000       0.00000000          1
H         2.10917308       6.97263774       2.15811836         0.00000000       0.00000000       0.00000000          1
H        13.02733739      11.06136549      13.87522561         0.00000000       0.00000000       0.00000000          1
H        13.69288691      14.88939823      11.35436316         0.00000000       0.00000000       0.00000000          1
H         5.21834128       8.68853087       8.92484222         0.00000000       0.00000000       0.00000000          1
H        12.59406479      13.29098455       9.73302089         0.00000000       0.00000000       0.00000000          1
6
pbc=[F, F, F] list_num_par=6 energy=-0.04775838 iter=139 frozen=false Lattice="15.00000000 0.00000000 0.00000000 0.00000000 15.00000000 0.00000000 0.00000000 0.00000000 15.00000000" energy_frozen_part=0.00000000 Properties=species:S:1:pos:R:3:velocities:R:3:Z:I:1
H         7.85448528       2.87636825       6.33133165         0.00000000       0.00000000       0.00000000          1
H         6.61915332       6.24446760       4.71740840         0.00000000       0.00000000       0.00000000          1
H        12.77746891       3.41798255       7.40417121         0.00000000       0.00000000       0.00000000          1
H         5.73952128      14.31315553       2.88898308         0.00000000       0.00000000       0.00000000          1
H         9.82351424       7.83189284      12.78064279         0.00000000       0.00000000       0.00000000          1
H         6.33375161       5.63516117      11.00206837         0.00000000       0.00000000       0.00000000          1
6
pbc=[F, F, F] list_num_par=6 energy=-0.05143372 iter=149 frozen=false Lattice="15.00000000 0.00000000 0.00000000 0.00000000 15.00000000 0.00000000 0.00000000 0.00000000 15.00000000" energy_frozen_part=0.00000000 Properties=species:S:1:pos:R:3:velocities:R:3:Z:I:1
H         2.42568198       9.40093780       9.05768577         0.00000000       0.00000000       0.00000000          1
H         7.13958150       2.47106093       3.10598498         0.00000000       0.00000000       0.00000000          1
H         5.28462626       9.21002513      12.26151670         0.00000000       0.00000000       0.00000000          1
H        12.24112481      12.87788445      13.03050439         0.00000000       0.00000000       0.00000000          1
H         1.20862444       9.83832298      13.97272956         0.00000000       0.00000000       0.00000000          1
H         7.97609068       6.22135625      11.14041660         0.00000000       0.00000000       0.00000000          1
6
pbc=[F, F, F] list_num_par=6 energy=-0.05630238 iter=159 frozen=false Lattice="15.00000000 0.00000000 0.00000000 0.00000000 15.00000000 0.00000000 0.00000000 0.00000000 15.00000000" energy_frozen_part=0.00000000 Properties=species:S:1:pos:R:3:velocities:R:3:Z:I:1
H        13.93390349       6.38108934       6.87428034         0.00000000       0.00000000       0.00000000          1
H         8.89076753       4.50296500      11.38357505         0.00000000       0.00000000       0.00000000          1
H         9.71684931       7.31586503       8.19773776         0.00000000       0.00000000       0.00000000          1
H         6.10197031       6.17638908      13.88045652         0.00000000       0.00000000       0.00000000          1
H        13.41027732       7.03882461      12.98509727         0.00000000       0.00000000       0.00000000          1
H         9.15579963      12.16851885      14.36672244         0.00000000       0.00000000       0.00000000          1
6
pbc=[F, F, F] list_num_par=6 energy=-0.06223000 iter=169 frozen=false Lattice="15.00000000 0.00000000 0.00000000 0.00000000 15.00000000 0.00000000 0.00000000 0.00000000 15.00000000" energy_frozen_part=0.00000000 Properties=species:S:1:pos:R:3:velocities:R:3:Z:I:1
H        14.56992271       1.05699142       4.72140462         0.00000000       0.00000000       0.00000000          1
H         2.63753931       3.17743947      10.20312410         0.00000000       0.00000000       0.00000000          1
H         5.09610271      11.98793452       1.44870235         0.00000000       0.00000000       0.00000000          1
H         7.77371695       4.88144693      12.12042314         0.00000000       0.00000000       0.00000000          1
H         4.33921986      12.18312183       3.90454074         0.00000000       0.00000000       0.00000000          1
H         4.73646068       0.33679892       6.13672448         0.00000000       0.00000000       0.00000000          1
6
pbc=[F, F, F] list_num_par=6 energy=-0.06559904 iter=179 frozen=false Lattice="15.00000000 0.00000000 0.00000000 0.00000000 15.00000000 0.00000000 0.00000000 0.00000000 15.00000000" energy_frozen_part=0.00000000 Properties=species:S:1:pos:R:3:velocities:R:3:Z:I:1
H         9.26568303      12.78657702      14.20781839         0.00000000       0.00000000       0.00000000          1
H         5.40971731       7.11611876       5.45466614         0.00000000       0.00000000       0.00000000          1
H        11.72239607       8.32206196      14.75889541         0.00000000       0.00000000       0.00000000          1
H        14.60734412       6.95215020       7.49515878         0.00000000       0.00000000       0.00000000          1
H        13.34417764       8.32087909       4.74910727         0.00000000       0.00000000       0.00000000          1
H        13.02527329       0.36197708       0.48809766         0.00000000       0.00000000       0.00000000          1
6
pbc=[F, F, F] list_num_par=6 energy=-0.07129961 iter=189 frozen=false Lattice="15.00000000 0.00000000 0.00000000 0.00000000 15.00000000 0.00000000 0.00000000 0.00000000 15.00000000" energy_frozen_part=0.00000000 Properties=species:S:1:pos:R:3:velocities:R:3:Z:I:1
H        11.25756620      12.65906677      13.53323218         0.00000000       0.00000000       0.00000000          1
H         9.18750248      13.61036083       7.54480737         0.00000000       0.00000000       0.00000000          1
H         4.78521662      12.22414147      13.66748374         0.00000000       0.00000000       0.00000000          1
H        12.46493125      10.84512248      10.20834830         0.00000000       0.00000000       0.00000000          1
H         7.11926103       5.79633940       8.08445098         0.00000000       0.00000000       0.00000000          1
H         7.44371075       5.57800584      11.70473609         0.00000000       0.00000000       0.00000000          1
6
pbc=[F, F, F] list_num_par=6 energy=-0.07667527 iter=199 frozen=false Lattice="15.00000000 0.00000000 0.00000000 0.00000000 15.00000000 0.00000000 0.00000000 0.00000000 15.00000000" energy_frozen_part=0.00000000 Properties=species:S:1:pos:R:3:velocities:R:3:Z:I:1
H         1.61184161       7.57227498       3.86725051         0.00000000       0.00000000       0.00000000          1
H        13.51298324       1.25799300       1.83207001         0.00000000       0.00000000       0.00000000          1
H         7.50233932       5.22319264       0.09696158         0.00000000       0.00000000       0.00000000          1
H         3.64867835       3.51627074       4.73244120         0.00000000       0.00000000       0.00000000          1
H         2.32274727       6.21510737       0.83982118         0.00000000       0.00000000       0.00000000          1
H        11.02978235       7.28558549      12.61846379         0.00000000       0.00000000       0.00000000          1
6
pbc=[F, F, F] list_num_par=6 energy=-0.08090075 iter=209 frozen=false Lattice="15.00000000 0.00000000 0.00000000 0.00000000 15.00000000 0.00000000 0.00000000 0.00000000 15.00000000" energy_frozen_part=0.00000000 Properties=species:S:1:pos:R:3:velocities:R:3:Z:I:1
H        13.72707070      13.63632714       0.43677324         0.00000000       0.00000000       0.00000000          1
H         5.47981800       9.84163234       1.84924298         0.00000000       0.00000000       0.00000000          1
H        12.79329896       7.35119103       8.82342625         0.00000000       0.00000000       0.00000000          1
H         5.60496702      13.96067654       2.11786013         0.00000000       0.00000000       0.00000000          1
H        12.38578807      12.75910685       3.50841172         0.00000000       0.00000000       0.00000000          1
H         9.51282071       5.27393742      10.99312609         0.00000000       0.00000000       0.00000000          1
6
pbc=[F, F, F] list_num_par=6 energy=-0.08581257 iter=219 frozen=false Lattice="15.00000000 0.00000000 0.00000000 0.00000000 15.00000000 0.00000000 0.00000000 0.00000000 15.00000000" energy_frozen_part=0.00000000 Properties=species:S:1:pos:R:3:velocities:R:3:Z:I:1
H         6.59440471       9.51083294       6.55326390         0.00000000       0.00000000       0.00000000          1
H         5.90757599       7.04654129       4.73399483         0.00000000       0.00000000       0.00000000          1
H         0.38664206      13.98723672       7.30747073         0.00000000       0.00000000       0.00000000          1
H        13.92689578      13.84832929       6.97026261         0.00000000       0.00000000       0.00000000          1
H        12.15040491       8.43940367       7.29828570         0.00000000       0.00000000       0.00000000          1
H        11.83447438       3.78283662       3.56441952         0.00000000       0.00000000       0.00000000          1
6
pbc=[F, F, F] list_num_par=6 energy=-0.08883624 iter=229 frozen=false Lattice="15.00000000 0.00000000 0.00000000 0.00000000 15.00000000 0.00000000 0.00000000 0.00000000 15.00000000" energy_frozen_part=0.00000000 Properties=species:S:1:pos:R:3:velocities:R:3:Z:I:1
H        11.44142477      11.97636179       6.45536855         0.00000000       0.00000000       0.00000000          1
H         0.97292161      13.06934260      11.19104343         0.00000000       0.00000000       0.00000000          1
H        12.82414339      13.35482655       4.68972554         0.00000000       0.00000000       0.00000000          1
H        11.54612883       3.50420536      13.57193978         0.00000000       0.00000000       0.00000000          1
H         6.96655223       3.73318088       2.74155266         0.00000000       0.00000000       0.00000000          1
H         5.47583239      13.69189309      10.69807809         0.00000000       0.00000000       0.00000000          1
6
pbc=[F, F, F] list_num_par=6 energy=-0.09216770 iter=239 frozen=false Lattice="15.00000000 0.00000000 0.00000000 0.00000000 15.00000000 0.00000000 0.00000000 0.00000000 15.00000000" energy_frozen_part=0.00000000 Properties=species:S:1:pos:R:3:velocities:R:3:Z:I:1
H         2.84517752      11.45362760       8.36493374         0.00000000       0.00000000       0.00000000          1
H        10.56927717       5.75669718       0.20800193         0.00000000       0.00000000       0.00000000          1
H         8.32373091       2.27101661       7.31425095         0.00000000       0.00000000       0.00000000          1
H         1.58320145      10.25469575       5.93467741         0.00000000       0.00000000       0.00000000          1
H        11.99849143       8.10272290       8.19498648         0.00000000       0.00000000       0.00000000          1
H         9.17319862      12.21360995      13.04519025         0.00000000       0.00000000       0.00000000          1
6
pbc=[F, F, F] list_num_par=6 energy=-0.09827643 iter=249 frozen=false Lattice="15.00000000 0.00000000 0.00000000 0.00000000 15.00000000 0.00000000 0.00000000 0.00000000 15.00000000" energy_frozen_part=0.00000000 Properties=species:S:1:pos:R:3:velocities:R:3:Z:I:1
H         4.60602115       2.82505882      11.11577710         0.00000000       0.00000000       0.00000000          1
H         0.73175741      12.13403970       6.39590182         0.00000000       0.00000000       0.00000000          1
H         4.83149414      14.54185020       3.48893290         0.00000000       0.00000000       0.00000000          1
H         0.31344266      13.83066572       4.40622620         0.00000000       0.00000000       0.00000000          1
H         6.01369050      14.97164583       9.40156520         0.00000000       0.00000000       0.00000000          1
H         1.50929194       4.64616267       1.84746085         0.00000000       0.00000000       0.00000000          1
6
pbc=[F, F, F] list_num_par=6 energy=-0.10130564 iter=259 frozen=false Lattice="15.00000000 0.00000000 0.00000000 0.00000000 15.00000000 0.00000000 0.00000000 0.00000000 15.00000000" energy_frozen_part=0.00000000 Properties=species:S:1:pos:R:3:velocities:R:3:Z:I:1
H        10.85832095      11.75768597       2.94475363         0.00000000       0.00000000       0.00000000          1
H         3.31889144      10.92365321       2.36106197         0.00000000       0.00000000       0.00000000          1
H        13.24829888      11.42086337       9.81452534         0.00000000       0.00000000       0.00000000          1
H         9.62642050      13.19627459       8.67206700         0.00000000       0.00000000       0.00000000          1
H        13.06285571      11.11524323       6.43769703         0.00000000       0.00000000       0.00000000          1
H         5.98446817       6.72287202      11.16981313         0.00000000       0.00000000       0.00000000          1
6
pbc=[F, F, F] list_num_par=6 energy=-0.10334727 iter=269 frozen=false Lattice="15.00000000 0.00000000 0.00000000 0.00000000 15.00000000 0.00000000 0.00000000 0.00000000 15.00000000" energy_frozen_part=0.00000000 Properties=species:S:1:pos:R:3:velocities:R:3:Z:I:1
H         0.33029990      10.29623003       6.16962571         0.00000000       0.00000000       0.00000000          1
H        13.32755822      12.69030082       4.86786921         0.00000000       0.00000000       0.00000000          1
H         1.44950731       9.91348897       8.67458155         0.00000000       0.00000000       0.00000000          1
H        12.57512168      14.43379103      11.56571875         0.00000000       0.00000000       0.00000000          1
H         0.14648706       4.12639156      14.95890091         0.00000000       0.00000000       0.00000000          1
H         7.75811687      12.91930582      13.96212886         0.00000000       0.00000000       0.00000000          1
6
pbc=[F, F, F] list_num_par=6 energy=-0.10481590 iter=279 frozen=false Lattice="15.00000000 0.00000000 0.00000000 0.00000000 15.00000000 0.00000000 0.00000000 0.00000000 15.00000000" energy_frozen_part=0.00000000 Properties=species:S:1:pos:R:3:velocities:R:3:Z:I:1
H        10.50107375       4.49581357       9.21575113         0.00000000       0.00000000       0.00000000          1
H         1.30213978       8.93075782       6.43942873         0.00000000       0.00000000       0.00000000          1
H        12.36650041       6.38397950       8.08168992         0.00000000       0.00000000       0.00000000          1
H         3.35959218       7.02249842      12.89086772         0.00000000       0.00000000       0.00000000          1
H         3.34342981       1.32178484       1.37053369         0.00000000       0.00000000       0.00000000          1
H         0.71960866      13.32321233       4.22514561         0.00000000       0.00000000       0.00000000          1
6
pbc=[F, F, F] list_num_par=6 energy=-0.10718631 iter=289 frozen=false Lattice="15.00000000 0.00000000 0.00000000 0.00000000 15.00000000 0.00000000 0.00000000 0.00000000 15.00000000" energy_frozen_part=0.00000000 Properties=species:S:1:pos:R:3:velocities:R:3:Z:I:1
H         1.40335102       2.99333143       8.18314665         0.00000000       0.00000000       0.00000000          1
H         7.47040026       9.74237034       5.72078144         0.00000000       0.00000000       0.00000000          1
H        13.96899001       4.58516049      14.57247732         0.00000000       0.00000000       0.00000000          1
H         6.71783562       8.87994220       2.78915026         0.00000000       0.00000000       0.00000000          1
H         6.35550167      12.07144849       8.49902980         0.00000000       0.00000000       0.00000000          1
H        10.69589194      12.36294915      14.22802884         0.00000000       0.00000000       0.00000000          1
6
pbc=[F, F, F] list_num_par=6 energy=-0.11070351 iter=299 frozen=false Lattice="15.00000000 0.00000000 0.00000000 0.00000000 15.00000000 0.00000000 0.00000000 0.00000000 15.00000000" energy_frozen_part=0.00000000 Properties=species:S:1:pos:R:3:velocities:R:3:Z:I:1
H         2.04558078      11.13175555       7.16603881         0.00000000       0.00000000       0.00000000          1
H         1.32907299      13.62702451       9.08192186         0.00000000       0.00000000       0.00000000          1
H         3.40397514       5.70576122      14.74978314         0.00000000       0.00000000       0.00000000          1
H         1.10258002       8.10043448       8.93239169         0.00000000       0.00000000       0.00000000          1
H         0.57404804       1.69488911       2.59625740         0.00000000       0.00000000       0.00000000          1
H         8.82039327       2.79431820      11.31183264         0.00000000       0.00000000       0.00000000          1
6
pbc=[F, F, F] list_num_par=6 energy=-0.11638565 iter=309 frozen=false Lattice="15.00000000 0.00000000 0.00000000 0.00000000 15.00000000 0.00000000 0.00000000 0.00000000 15.00000000" energy_frozen_part=0.00000000 Properties=species:S:1:pos:R:3:velocities:R:3:Z:I:1
H         6.00681368      12.36672445       3.71500610         0.00000000       0.00000000       0.00000000          1
H        14.31922853      13.76095534       6.78010910         0.00000000       0.00000000       0.00000000          1