6
pbc=[F, F, F] list_num_par=6 energy=-1.26974174 iter=20000 frozen=false Lattice="15.00000000 0.00000000 0.00000000 0.00000000 15.00000000 0.00000000 0.00000000 0.00000000 15.00000000" energy_frozen_part=0.00000000 Properties=species:S:1:pos:R:3:velocities:R:3:Z:I:1
H        10.96630871      11.16127880       5.26597344         0.00000000       0.00000000       0.00000000          1
H        10.49287325       9.00131291       3.55872449         0.00000000       0.00000000       0.00000000          1
H         8.56561398      12.33322694       4.44897749         0.00000000       0.00000000       0.00000000          1
H        10.48234585      11.60678260       2.55090707         0.00000000       0.00000000       0.00000000          1
H         8.57613904       9.72775426       5.45679590         0.00000000       0.00000000       0.00000000          1
H         8.09218365      10.17326072       2.74172745         0.00000000       0.00000000       0.00000000          1
6
pbc=[F, F, F] list_num_par=6 energy=-1.26974174 iter=20000 frozen=false Lattice="15.00000000 0.00000000 0.00000000 0.00000000 15.00000000 0.00000000 0.00000000 0.00000000 15.00000000" energy_frozen_part=0.00000000 Properties=species:S:1:pos:R:3:velocities:R:3:Z:I:1
H        11.02327552       9.80188625       5.07529571         0.00000000       0.00000000       0.00000000          1
H         9.37100138       8.91451162       3.00482721         0.00000000       0.00000000       0.00000000          1
H         9.26734839      11.91766170       5.56976903         0.00000000       0.00000000       0.00000000          1
H        10.31693005      11.54310146       3.00804915         0.00000000       0.00000000       0.00000000          1
H         8.32142280       9.28906764       5.56654145         0.00000000       0.00000000       0.00000000          1
H         7.61508217      11.03029136       3.49929116         0.00000000       0.00000000       0.00000000          1
6
pbc=[F, F, F] list_num_par=6 energy=-1.26974174 iter=20000 frozen=false Lattice="15.00000000 0.00000000 0.00000000 0.00000000 15.00000000 0.00000000 0.00000000 0.00000000 15.00000000" energy_frozen_part=0.00000000 Properties=species:S:1:pos:R:3:velocities:R:3:Z:I:1
H        11.02202868       9.80030062       5.07554439         0.00000000       0.00000000       0.00000000          1
H         9.36990634       8.91368488       3.00463031         0.00000000       0.00000000       0.00000000          1
H         9.26668085      11.91657672       5.56988716         0.00000000       0.00000000       0.00000000          1
H        10.31666030      11.54197430       3.00834521         0.00000000       0.00000000       0.00000000          1
H         8.31991317       9.28828736       5.56616532         0.00000000       0.00000000       0.00000000          1
H         7.61455213      11.02996482       3.49897343         0.00000000       0.00000000       0.00000000          1
6
pbc=[F, F, F] list_num_par=6 energy=-1.26974174 iter=20000 frozen=false Lattice="15.00000000 0.00000000 0.00000000 0.00000000 15.00000000 0.00000000 0.00000000 0.00000000 15.00000000" energy_frozen_part=0.00000000 Properties=species:S:1:pos:R:3:velocities:R:3:Z:I:1
H        11.02204510       9.80030025       5.07558821         0.00000000       0.00000000       0.00000000          1
H         9.36987595       8.91367090       3.00471930         0.00000000       0.00000000       0.00000000          1
H         9.26671052      11.91660400       5.56993136         0.00000000       0.00000000       0.00000000          1
H        10.31666065      11.54195464       3.00838052         0.00000000       0.00000000       0.00000000          1
H         8.31993041       9.28832207       5.56626925         0.00000000       0.00000000       0.00000000          1
H         7.61454744      11.02997782       3.49905860         0.00000000       0.00000000       0.00000000          1
6
pbc=[F, F, F] list_num_par=6 energy=-1.26974174 iter=20000 frozen=false Lattice="15.00000000 0.00000000 0.00000000 0.00000000 15.00000000 0.00000000 0.00000000 0.00000000 15.00000000" energy_frozen_part=0.00000000 Properties=species:S:1:pos:R:3:velocities:R:3:Z:I:1
H        11.02326540       9.80185668       5.07528267         0.00000000       0.00000000       0.00000000          1
H         9.37101051       8.91458672       3.00475616         0.00000000       0.00000000       0.00000000          1
H         9.26740897      11.91768145       5.56976050         0.00000000       0.00000000       0.00000000          1
H        10.31702271      11.54314660       3.00806044         0.00000000       0.00000000       0.00000000          1
H         8.32138746       9.28912411       5.56645994         0.00000000       0.00000000       0.00000000          1
H         7.61514658      11.03041846       3.49924004         0.00000000       0.00000000       0.00000000          1
6
pbc=[F, F, F] list_num_par=6 energy=-1.26974174 iter=20000 frozen=false Lattice="15.00000000 0.00000000 0.00000000 0.00000000 15.00000000 0.00000000 0.00000000 0.00000000 15.00000000" energy_frozen_part=0.00000000 Properties=species:S:1:pos:R:3:velocities:R:3:Z:I:1
H        11.02326225       9.80184728       5.07527806         0.00000000       0.00000000       0.00000000          1
H         9.37100322       8.91459690       3.00474718         0.00000000       0.00000000       0.00000000          1
H         9.26740663      11.91768310       5.56976053         0.00000000       0.00000000       0.00000000          1
H        10.31702739      11.54315421       3.00806372         0.00000000       0.00000000       0.00000000          1
H         8.32138877       9.28912621       5.56645420         0.00000000       0.00000000       0.00000000          1
H         7.61514495      11.03041924       3.49923389         0.00000000       0.00000000       0.00000000          1
6
pbc=[F, F, F] list_num_par=6 energy=-1.26974174 iter=20000 frozen=false Lattice="15.00000000 0.00000000 0.00000000 0.00000000 15.00000000 0.00000000 0.00000000 0.00000000 15.00000000" energy_frozen_part=0.00000000 Properties=species:S:1:pos:R:3:velocities:R:3:Z:I:1
H        10.96619442      11.16134595       5.26601135         0.00000000       0.00000000       0.00000000          1
H        10.49277866       9.00120803       3.55897434         0.00000000       0.00000000       0.00000000          1
H         8.56561706      12.33332749       4.44870823         0.00000000       0.00000000       0.00000000          1
H        10.48245937      11.60656678       2.55085680         0.00000000       0.00000000       0.00000000          1
H         8.57593489       9.72796764       5.45681276         0.00000000       0.00000000       0.00000000          1
H         8.09220667      10.17319462       2.74166150         0.00000000       0.00000000       0.00000000          1
6
pbc=[F, F, F] list_num_par=6 energy=-1.26974174 iter=20000 frozen=false Lattice="15.00000000 0.00000000 0.00000000 0.00000000 15.00000000 0.00000000 0.00000000 0.00000000 15.00000000" energy_frozen_part=0.00000000 Properties=species:S:1:pos:R:3:velocities:R:3:Z:I:1
H        10.96630867      11.16128402       5.26597598         0.00000000       0.00000000       0.00000000          1
H        10.49288760       9.00133039       3.55871077         0.00000000       0.00000000       0.00000000          1
H         8.56561155      12.33322599       4.44899454         0.00000000       0.00000000       0.00000000          1
H        10.48234478      11.60680497       2.55091319         0.00000000       0.00000000       0.00000000          1
H         8.57614903       9.72774358       5.45679287         0.00000000       0.00000000       0.00000000          1
H         8.09218498      10.17327735       2.74173100         0.00000000       0.00000000       0.00000000          1
6
pbc=[F, F, F] list_num_par=6 energy=-1.26974174 iter=20000 frozen=false Lattice="15.00000000 0.00000000 0.00000000 0.00000000 15.00000000 0.00000000 0.00000000 0.00000000 15.00000000" energy_frozen_part=0.00000000 Properties=species:S:1:pos:R:3:velocities:R:3:Z:I:1
H        11.02326695       9.80185935       5.07530000         0.00000000       0.00000000       0.00000000          1
H         9.37101597       8.91458480       3.00476749         0.00000000       0.00000000       0.00000000          1
H         9.26740634      11.91767852       5.56977305         0.00000000       0.00000000       0.00000000          1
H        10.31702246      11.54314908       3.00807291         0.00000000       0.00000000       0.00000000          1
H         8.32139447       9.28911415       5.56647020         0.00000000       0.00000000       0.00000000          1
H         7.61514710      11.03040249       3.49924525         0.00000000       0.00000000       0.00000000          1
6
pbc=[F, F, F] list_num_par=6 energy=-1.26974174 iter=20000 frozen=false Lattice="15.00000000 0.00000000 0.00000000 0.00000000 15.00000000 0.00000000 0.00000000 0.00000000 15.00000000" energy_frozen_part=0.00000000 Properties=species:S:1:pos:R:3:velocities:R:3:Z:I:1
H        10.96732039      11.16087537       5.26463918         0.00000000       0.00000000       0.00000000          1
H        10.49231946       9.00065739       3.55814932         0.00000000       0.00000000       0.00000000          1
H         8.56679126      12.33360682       4.44828334         0.00000000       0.00000000       0.00000000          1
H        10.48247439      11.60585952       2.54964791         0.00000000       0.00000000       0.00000000          1
H         8.57663061       9.72839963       5.45678448         0.00000000       0.00000000       0.00000000          1
H         8.09179038      10.17338711       2.74179446         0.00000000       0.00000000       0.00000000          1
6
pbc=[F, F, F] list_num_par=6 energy=-1.26974174 iter=20000 frozen=false Lattice="15.00000000 0.00000000 0.00000000 0.00000000 15.00000000 0.00000000 0.00000000 0.00000000 15.00000000" energy_frozen_part=0.00000000 Properties=species:S:1:pos:R:3:velocities:R:3:Z:I:1
H        11.02326953       9.80187511       5.07530208         0.00000000       0.00000000       0.00000000          1
H         9.37100480       8.91449720       3.00482338         0.00000000       0.00000000       0.00000000          1
H         9.26733933      11.91765757       5.56975729         0.00000000       0.00000000       0.00000000          1
H        10.31692215      11.54309190       3.00804789         0.00000000       0.00000000       0.00000000          1
H         8.32142113       9.28906610       5.56653812         0.00000000       0.00000000       0.00000000          1
H         7.61507497      11.03027702       3.49928652         0.00000000       0.00000000       0.00000000          1
6
pbc=[F, F, F] list_num_par=6 energy=-1.26974174 iter=20000 frozen=false Lattice="15.00000000 0.00000000 0.00000000 0.00000000 15.00000000 0.00000000 0.00000000 0.00000000 15.00000000" energy_frozen_part=0.00000000 Properties=species:S:1:pos:R:3:velocities:R:3:Z:I:1
H        10.96629176      11.16127333       5.26596532         0.00000000       0.00000000       0.00000000          1
H        10.49285559       9.00133470       3.55868633         0.00000000       0.00000000       0.00000000          1
H         8.56559613      12.33323343       4.44901112         0.00000000       0.00000000       0.00000000          1
H        10.48232148      11.60682326       2.55090960         0.00000000       0.00000000       0.00000000          1
H         8.57613287       9.72774683       5.45678062         0.00000000       0.00000000       0.00000000          1
H         8.09216082      10.17330069       2.74172323         0.00000000       0.00000000       0.00000000          1
6
pbc=[F, F, F] list_num_par=6 energy=-1.26974174 iter=20000 frozen=false Lattice="15.00000000 0.00000000 0.00000000 0.00000000 15.00000000 0.00000000 0.00000000 0.00000000 15.00000000" energy_frozen_part=0.00000000 Properties=species:S:1:pos:R:3:velocities:R:3:Z:I:1
H        11.02327882       9.80185652       5.07528629         0.00000000       0.00000000       0.00000000          1
H         9.37102659       8.91457367       3.00476302         0.00000000       0.00000000       0.00000000          1
H         9.26740015      11.91767374       5.56976738         0.00000000       0.00000000       0.00000000          1
H        10.31701752      11.54314793       3.00806642         0.00000000       0.00000000       0.00000000          1
H         8.32141411       9.28910340       5.56646798         0.00000000       0.00000000       0.00000000          1
H         7.61514421      11.03038411       3.49924286         0.00000000       0.00000000       0.00000000          1
6
pbc=[F, F, F] list_num_par=6 energy=-1.26974174 iter=20000 frozen=false Lattice="15.00000000 0.00000000 0.00000000 0.00000000 15.00000000 0.00000000 0.00000000 0.00000000 15.00000000" energy_frozen_part=0.00000000 Properties=species:S:1:pos:R:3:velocities:R:3:Z:I:1
H        11.02327250       9.80190745       5.07532297         0.00000000       0.00000000       0.00000000          1
H         9.37104707       8.91446227       3.00484420         0.00000000       0.00000000       0.00000000          1
H         9.26730072      11.91765641       5.56972553         0.00000000       0.00000000       0.00000000          1
H        10.31691992      11.54306838       3.00803141         0.00000000       0.00000000       0.00000000          1
H         8.32142458       9.28905016       5.56653908         0.00000000       0.00000000       0.00000000          1
H         7.61507511      11.03021896       3.49924334         0.00000000       0.00000000       0.00000000          1
6
pbc=[F, F, F] list_num_par=6 energy=-1.26974174 iter=20000 frozen=false Lattice="15.00000000 0.00000000 0.00000000 0.00000000 15.00000000 0.00000000 0.00000000 0.00000000 15.00000000" energy_frozen_part=0.00000000 Properties=species:S:1:pos:R:3:velocities:R:3:Z:I:1
H        10.96729988      11.16086953       5.26467036         0.00000000       0.00000000       0.00000000          1
H        10.49232564       9.00064443       3.55818410         0.00000000       0.00000000       0.00000000          1
H         8.56677173      12.33358997       4.44828808         0.00000000       0.00000000       0.00000000          1
H        10.48247928      11.60584470       2.54967211         0.00000000       0.00000000       0.00000000          1
H         8.57661631       9.72838509       5.45679799         0.00000000       0.00000000       0.00000000          1
H         8.09180421      10.17336482       2.74179567         0.00000000       0.00000000       0.00000000          1
6
pbc=[F, F, F] list_num_par=6 energy=-1.26974174 iter=20000 frozen=false Lattice="15.00000000 0.00000000 0.00000000 0.00000000 15.00000000 0.00000000 0.00000000 0.00000000 15.00000000" energy_frozen_part=0.00000000 Properties=species:S:1:pos:R:3:velocities:R:3:Z:I:1
H        10.96629803      11.16125367       5.26597740         0.00000000       0.00000000       0.00000000          1
H        10.49285433       9.00132819       3.55867145         0.00000000       0.00000000       0.00000000          1
H         8.56560167      12.33323020       4.44901223         0.00000000       0.00000000       0.00000000          1
H        10.48233111      11.60682420       2.55092147         0.00000000       0.00000000       0.00000000          1
H         8.57613174       9.72773452       5.45677193         0.00000000       0.00000000       0.00000000          1
H         8.09216356      10.17330913       2.74171168         0.00000000       0.00000000       0.00000000          1
6
pbc=[F, F, F] list_num_par=6 energy=-1.26974174 iter=20000 frozen=false Lattice="15.00000000 0.00000000 0.00000000 0.00000000 15.00000000 0.00000000 0.00000000 0.00000000 15.00000000" energy_frozen_part=0.00000000 Properties=species:S:1:pos:R:3:velocities:R:3:Z:I:1
H        10.96730053      11.16087669       5.26467644         0.00000000       0.00000000       0.00000000          1
H        10.49232922       9.00064956       3.55818222         0.00000000       0.00000000       0.00000000          1
H         8.56677451      12.33359164       4.44828973         0.00000000       0.00000000       0.00000000          1
H        10.48247647      11.60585913       2.54967368         0.00000000       0.00000000       0.00000000          1
H         8.57662241       9.72838980       5.45680034         0.00000000       0.00000000       0.00000000          1
H         8.09180272      10.17336604       2.74179535         0.00000000       0.00000000       0.00000000          1
6
pbc=[F, F, F] list_num_par=6 energy=-1.26974174 iter=20000 frozen=false Lattice="15.00000000 0.00000000 0.00000000 0.00000000 15.00000000 0.00000000 0.00000000 0.00000000 15.00000000" energy_frozen_part=0.00000000 Properties=species:S:1:pos:R:3:velocities:R:3:Z:I:1
H        11.02324974       9.80183822       5.07529681         0.00000000       0.00000000       0.00000000          1
H         9.37100405       8.91458892       3.00475340         0.00000000       0.00000000       0.00000000          1
H         9.26740150      11.91767491       5.56977423         0.00000000       0.00000000       0.00000000          1
H        10.31703348      11.54314832       3.00808033         0.00000000       0.00000000       0.00000000          1
H         8.32137338       9.28911735       5.56645354         0.00000000       0.00000000       0.00000000          1
H         7.61515155      11.03041611       3.49923571         0.00000000       0.00000000       0.00000000          1
6
pbc=[F, F, F] list_num_par=6 energy=-1.26974174 iter=20000 frozen=false Lattice="15.00000000 0.00000000 0.00000000 0.00000000 15.00000000 0.00000000 0.00000000 0.00000000 15.00000000" energy_frozen_part=0.00000000 Properties=species:S:1:pos:R:3:velocities:R:3:Z:I:1
H        11.02204431       9.80029243       5.07558503         0.00000000       0.00000000       0.00000000          1
H         9.36986963       8.91366642       3.00471514         0.00000000       0.00000000       0.00000000          1
H         9.26672201      11.91659878       5.56993096         0.00000000       0.00000000       0.00000000          1
H        10.31665121      11.54195166       3.00837831         0.00000000       0.00000000       0.00000000          1
H         8.31993476       9.28832372       5.56626986         0.00000000       0.00000000       0.00000000          1
H         7.61454382      11.02997018       3.49905685         0.00000000       0.00000000       0.00000000          1
6
pbc=[F, F, F] list_num_par=6 energy=-1.26974174 iter=20000 frozen=false Lattice="15.00000000 0.00000000 0.00000000 0.00000000 15.00000000 0.00000000 0.00000000 0.00000000 15.00000000" energy_frozen_part=0.00000000 Properties=species:S:1:pos:R:3:velocities:R:3:Z:I:1
H        11.02327165       9.80185483       5.07529412         0.00000000       0.00000000       0.00000000          1
H         9.37102841       8.91458037       3.00475510         0.00000000       0.00000000       0.00000000          1
H         9.26739672      11.91767046       5.56977143         0.00000000       0.00000000       0.00000000          1
H        10.31702246      11.54314908       3.00807291         0.00000000       0.00000000       0.00000000          1
H         8.32140004       9.28910220       5.56646194         0.00000000       0.00000000       0.00000000          1
H         7.61514935      11.03039657       3.49923822         0.00000000       0.00000000       0.00000000          1
6
pbc=[F, F, F] list_num_par=6 energy=-1.26974174 iter=20000 frozen=false Lattice="15.00000000 0.00000000 0.00000000 0.00000000 15.00000000 0.00000000 0.00000000 0.00000000 15.00000000" energy_frozen_part=0.00000000 Properties=species:S:1:pos:R:3:velocities:R:3:Z:I:1
H        10.96629262      11.16125975       5.26596880         0.00000000       0.00000000       0.00000000          1
H        10.49285957       9.00133214       3.55867625         0.00000000       0.00000000       0.00000000          1
H         8.56559646      12.33322992       4.44900389         0.00000000       0.00000000       0.00000000          1
H        10.48233045      11.60683001       2.55091416         0.00000000       0.00000000       0.00000000          1
H         8.57612567       9.72774319       5.45677446         0.00000000       0.00000000       0.00000000          1
H         8.09216732      10.17330234       2.74171394         0.00000000       0.00000000       0.00000000          1
6
pbc=[F, F, F] list_num_par=6 energy=-1.26974174 iter=20000 frozen=false Lattice="15.00000000 0.00000000 0.00000000 0.00000000 15.00000000 0.00000000 0.00000000 0.00000000 15.00000000" energy_frozen_part=0.00000000 Properties=species:S:1:pos:R:3:velocities:R:3:Z:I:1
H        10.96630601      11.16127972       5.26598391         0.00000000       0.00000000       0.00000000          1
H        10.49288903       9.00132117       3.55872005         0.00000000       0.00000000       0.00000000          1
H         8.56560234      12.33321958       4.44899448         0.00000000       0.00000000       0.00000000          1
H        10.48234166      11.60679370       2.55091974         0.00000000       0.00000000       0.00000000          1
H         8.57614865       9.72774636       5.45679415         0.00000000       0.00000000       0.00000000          1
H         8.09218474      10.17326419       2.74172473         0.00000000       0.00000000       0.00000000          1
6
pbc=[F, F, F] list_num_par=6 energy=-1.26974174 iter=20000 frozen=false Lattice="15.00000000 0.00000000 0.00000000 0.00000000 15.00000000 0.00000000 0.00000000 0.00000000 15.00000000" energy_frozen_part=0.00000000 Properties=species:S:1:pos:R:3:velocities:R:3:Z:I:1
H        11.02328389       9.80187054       5.07530327         0.00000000       0.00000000       0.00000000          1
H         9.37102217       8.91447188       3.00484301         0.00000000       0.00000000       0.00000000          1
H         9.26734616      11.91764639       5.56974888         0.00000000       0.00000000       0.00000000          1
H        10.31693031      11.54307332       3.00804119         0.00000000       0.00000000       0.00000000          1
H         8.32143316       9.28905264       5.56655061         0.00000000       0.00000000       0.00000000          1
H         7.61508071      11.03024164       3.49927959         0.00000000       0.00000000       0.00000000          1
6
pbc=[F, F, F] list_num_par=6 energy=-1.26974174 iter=20000 frozen=false Lattice="15.00000000 0.00000000 0.00000000 0.00000000 15.00000000 0.00000000 0.00000000 0.00000000 15.00000000" energy_frozen_part=0.00000000 Properties=species:S:1:pos:R:3:velocities:R:3:Z:I:1
H        10.96630269      11.16130279       5.26598548         0.00000000       0.00000000       0.00000000          1
H        10.49291139       9.00134262       3.55871969         0.00000000       0.00000000       0.00000000          1
H         8.56559334      12.33322494       4.44898941         0.00000000       0.00000000       0.00000000          1
H        10.48234863      11.60681560       2.55091995         0.00000000       0.00000000       0.00000000          1
H         8.57615507       9.72774544       5.45678507         0.00000000       0.00000000       0.00000000          1
H         8.09220320      10.17326014       2.74171497         0.00000000       0.00000000       0.00000000          1
6
pbc=[F, F, F] list_num_par=6 energy=-1.26974174 iter=20000 frozen=false Lattice="15.00000000 0.00000000 0.00000000 0.00000000 15.00000000 0.00000000 0.00000000 0.00000000 15.00000000" energy_frozen_part=0.00000000 Properties=species:S:1:pos:R:3:velocities:R:3:Z:I:1
H        11.02325231       9.80185740       5.07534580         0.00000000       0.00000000       0.00000000          1
H         9.37100580       8.91451945       3.00483298         0.00000000       0.00000000       0.00000000          1
H         9.26738365      11.91768995       5.56976026         0.00000000       0.00000000       0.00000000          1
H        10.31701698      11.54308604       3.00807287         0.00000000       0.00000000       0.00000000          1
H         8.32137808       9.28912322       5.56651603         0.00000000       0.00000000       0.00000000          1
H         7.61514104      11.03035993       3.49924975         0.00000000       0.00000000       0.00000000          1
6
pbc=[F, F, F] list_num_par=6 energy=-1.26974174 iter=20000 frozen=false Lattice="15.00000000 0.00000000 0.00000000 0.00000000 15.00000000 0.00000000 0.00000000 0.00000000 15.00000000" energy_frozen_part=0.00000000 Properties=species:S:1:pos:R:3:velocities:R:3:Z:I:1
H        11.02203956       9.80033042       5.07554530         0.00000000       0.00000000       0.00000000          1
H         9.36987917       8.91366631       3.00468043         0.00000000       0.00000000       0.00000000          1
H         9.26666479      11.91659956       5.56989057         0.00000000       0.00000000       0.00000000          1
H        10.31660634      11.54197176       3.00833673         0.00000000       0.00000000       0.00000000          1
H         8.31994239       9.28829570       5.56624089         0.00000000       0.00000000       0.00000000          1
H         7.61451348      11.02992910       3.49902927         0.00000000       0.00000000       0.00000000          1
6
pbc=[F, F, F] list_num_par=6 energy=-1.26974174 iter=20000 frozen=false Lattice="15.00000000 0.00000000 0.00000000 0.00000000 15.00000000 0.00000000 0.00000000 0.00000000 15.00000000" energy_frozen_part=0.00000000 Properties=species:S:1:pos:R:3:velocities:R:3:Z:I:1
H        11.02326825       9.80191647       5.07538740         0.00000000       0.00000000       0.00000000          1
H         9.37108145       8.91450149       3.00486950         0.00000000       0.00000000       0.00000000          1
H         9.26723550      11.91761008       5.56984534         0.00000000       0.00000000       0.00000000          1
H        10.31688581      11.54313616       3.00815330         0.00000000       0.00000000       0.00000000          1
H         8.32143348       9.28896908       5.56656401         0.00000000       0.00000000       0.00000000          1
H         7.61504973      11.03019623       3.49932719         0.00000000       0.00000000       0.00000000          1
6
pbc=[F, F, F] list_num_par=6 energy=-1.26974174 iter=20000 frozen=false Lattice="15.00000000 0.00000000 0.00000000 0.00000000 15.00000000 0.00000000 0.00000000 0.00000000 15.00000000" energy_frozen_part=0.00000000 Properties=species:S:1:pos:R:3:velocities:R:3:Z:I:1
H        11.02325841       9.80184302       5.07534172         0.00000000       0.00000000       0.00000000          1
H         9.37099683       8.91451936       3.00484141         0.00000000       0.00000000       0.00000000          1
H         9.26739145      11.91768496       5.56976434         0.00000000       0.00000000       0.00000000          1
H        10.31701373      11.54308186       3.00807624         0.00000000       0.00000000       0.00000000          1
H         8.32138488       9.28912561       5.56653668         0.00000000       0.00000000       0.00000000          1
H         7.61513998      11.03035519       3.49926021         0.00000000       0.00000000       0.00000000          1
6
pbc=[F, F, F] list_num_par=6 energy=-1.26974174 iter=20000 frozen=false Lattice="15.00000000 0.00000000 0.00000000 0.00000000 15.00000000 0.00000000 0.00000000 0.00000000 15.00000000" energy_frozen_part=0.00000000 Properties=species:S:1:pos:R:3:velocities:R:3:Z:I:1
H        11.02328958       9.80194459       5.07533941         0.00000000       0.00000000       0.00000000          1
H         9.37107762       8.91450198       3.00485168         0.00000000       0.00000000       0.00000000          1
H         9.26731637      11.91770547       5.56971675         0.00000000       0.00000000       0.00000000          1
H        10.31696099      11.54310899       3.00803565         0.00000000       0.00000000       0.00000000          1
H         8.32142923       9.28909832       5.56652920         0.00000000       0.00000000       0.00000000          1
H         7.61510313      11.03026211       3.49922533         0.00000000       0.00000000       0.00000000          1
6
pbc=[F, F, F] list_num_par=6 energy=-1.26974174 iter=20000 frozen=false Lattice="15.00000000 0.00000000 0.00000000 0.00000000 15.00000000 0.00000000 0.00000000 0.00000000 15.00000000" energy_frozen_part=0.00000000 Properties=species:S:1:pos:R:3:velocities:R:3:Z:I:1
H        11.02203529       9.80030179       5.07553445         0.00000000       0.00000000       0.00000000          1
H         9.36991639       8.91367900       3.00462358         0.00000000       0.00000000       0.00000000          1
H         9.26667765      11.91658488       5.56987159         0.00000000       0.00000000       0.00000000          1
H        10.31667976      11.54197174       3.00833508         0.00000000       0.00000000       0.00000000          1
H         8.31991805       9.28829604       5.56615803         0.00000000       0.00000000       0.00000000          1
H         7.61456603      11.02996962       3.49895071         0.00000000       0.00000000       0.00000000          1
6
pbc=[F, F, F] list_num_par=6 energy=-1.26974174 iter=20000 frozen=false Lattice="15.00000000 0.00000000 0.00000000 0.00000000 15.00000000 0.00000000 0.00000000 0.00000000 15.00000000" energy_frozen_part=0.00000000 Properties=species:S:1:pos:R:3:velocities:R:3:Z:I:1
H        11.02324216       9.80181588       5.07532360         0.00000000       0.00000000       0.00000000          1
H         9.37095891       8.91449455       3.00483273         0.00000000       0.00000000       0.00000000          1