6
pbc=[F, F, F] list_num_par=6 energy=91.91099928 iter=9 frozen=false Lattice="15.00000000 0.00000000 0.00000000 0.00000000 15.00000000 0.00000000 0.00000000 0.00000000 15.00000000" energy_frozen_part=0.00000000 Properties=species:S:1:pos:R:3:velocities:R:3:Z:I:1
H         3.15326956      14.45896793      10.60477273         0.00000000       0.00000000       0.00000000          1
H         4.27910721       0.31048211       7.60078337         0.00000000       0.00000000       0.00000000          1
H         2.14266097      10.01314768       3.05369509         0.00000000       0.00000000       0.00000000          1
H         2.64250997      10.70606967       5.10947539         0.00000000       0.00000000       0.00000000          1
H         3.19929740       5.85974936       6.14864175         0.00000000       0.00000000       0.00000000          1
H         3.04852607       1.10847031       7.00907132         0.00000000       0.00000000       0.00000000          1
6
pbc=[F, F, F] list_num_par=6 energy=0.57313158 iter=19 frozen=false Lattice="15.00000000 0.00000000 0.00000000 0.00000000 15.00000000 0.00000000 0.00000000 0.00000000 15.00000000" energy_frozen_part=0.00000000 Properties=species:S:1:pos:R:3:velocities:R:3:Z:I:1
H         9.30603604       7.26655181      11.01754189         0.00000000       0.00000000       0.00000000          1
H         0.37408971       3.08699469       6.89991813         0.00000000       0.00000000       0.00000000          1
H        11.26252329      14.11182737       9.20446668         0.00000000       0.00000000       0.00000000          1
H        11.68912790       2.87902042       3.00058313         0.00000000       0.00000000       0.00000000          1
H         7.22419891      13.60534834       3.43559977         0.00000000       0.00000000       0.00000000          1
H         2.62525239       3.20084019       6.65759420         0.00000000       0.00000000       0.00000000          1
6
pbc=[F, F, F] list_num_par=6 energy=-0.00139539 iter=29 frozen=false Lattice="15.00000000 0.00000000 0.00000000 0.00000000 15.00000000 0.00000000 0.00000000 0.00000000 15.00000000" energy_frozen_part=0.00000000 Properties=species:S:1:pos:R:3:velocities:R:3:Z:I:1
H        13.59751229      10.92451992       1.21709458         0.00000000       0.00000000       0.00000000          1
H         3.85283697      13.89955977      14.77102344         0.00000000       0.00000000       0.00000000          1
H        12.30575828       6.26579546      14.42369801         0.00000000       0.00000000       0.00000000          1
H         0.57159870       5.14378976       7.20366621         0.00000000       0.00000000       0.00000000          1
H         6.15458385       3.95339102      12.59162941         0.00000000       0.00000000       0.00000000          1
H         9.51346229       3.77918728       0.40018706         0.00000000       0.00000000       0.00000000          1
6
pbc=[F, F, F] list_num_par=6 energy=-0.00437314 iter=39 frozen=false Lattice="15.00000000 0.00000000 0.00000000 0.00000000 15.00000000 0.00000000 0.00000000 0.00000000 15.00000000" energy_frozen_part=0.00000000 Properties=species:S:1:pos:R:3:velocities:R:3:Z:I:1
H         5.71667244       5.39049102      10.51459267         0.00000000       0.00000000       0.00000000          1
H         7.72288164       9.29985420       1.82971806         0.00000000       0.00000000       0.00000000          1
H         8.36042462      14.75009752      11.38998895         0.00000000       0.00000000       0.00000000          1
H         0.70763029       8.55643673      13.62207785         0.00000000       0.00000000       0.00000000          1
H        13.98973075       9.96982849      12.04551195         0.00000000       0.00000000       0.00000000          1
H         2.09421130       9.85825493       1.51585059         0.00000000       0.00000000       0.00000000          1
6
pbc=[F, F, F] list_num_par=6 energy=-0.00807274 iter=49 frozen=false Lattice="15.00000000 0.00000000 0.00000000 0.00000000 15.00000000 0.00000000 0.00000000 0.00000000 15.00000000" energy_frozen_part=0.00000000 Properties=species:S:1:pos:R:3:velocities:R:3:Z:I:1
H         3.41199083       5.35817309       9.43811994         0.00000000       0.00000000       0.00000000          1
H         5.45893577       7.24849295       3.46273000         0.00000000       0.00000000       0.00000000          1
H         6.98873457       1.47592278      13.93614315         0.00000000       0.00000000       0.00000000          1
H         8.69614058      10.83699206      11.81056477         0.00000000       0.00000000       0.00000000          1
H         3.20432675      14.55191960       8.21806537         0.00000000       0.00000000       0.00000000          1
H         1.98536704       9.91669614      12.37547758         0.00000000       0.00000000       0.00000000          1
6
pbc=[F, F, F] list_num_par=6 energy=-0.01287330 iter=59 frozen=false Lattice="15.00000000 0.00000000 0.00000000 0.00000000 15.00000000 0.00000000 0.00000000 0.00000000 15.00000000" energy_frozen_part=0.00000000 Properties=species:S:1:pos:R:3:velocities:R:3:Z:I:1
H         4.83445818       8.57909863       5.46802801         0.00000000       0.00000000       0.00000000          1
H        12.52701360       2.08068021       8.48504475         0.00000000       0.00000000       0.00000000          1
H        12.32176359       3.52951172      14.06701800         0.00000000       0.00000000       0.00000000          1
H        13.51680401       7.67521385       4.67446139         0.00000000       0.00000000       0.00000000          1
H         8.71637994       6.56121761      14.46432518         0.00000000       0.00000000       0.00000000          1
H         5.07000754       0.81227595       8.55590488         0.00000000       0.00000000       0.00000000          1
6
pbc=[F, F, F] list_num_par=6 energy=-0.01403107 iter=69 frozen=false Lattice="15.00000000 0.00000000 0.00000000 0.00000000 15.00000000 0.00000000 0.00000000 0.00000000 15.00000000" energy_frozen_part=0.00000000 Properties=species:S:1:pos:R:3:velocities:R:3:Z:I:1
H        11.64549845      14.18472233       7.63046346         0.00000000       0.00000000       0.00000000          1
H         4.26241899       0.78673660      14.68617454         0.00000000       0.00000000       0.00000000          1
H         5.41316201      13.74842166      14.45763590         0.00000000       0.00000000       0.00000000          1
H         2.53023762      11.54690512       6.83044338         0.00000000       0.00000000       0.00000000          1
H         2.21898182       8.55280905      10.01246423         0.00000000       0.00000000       0.00000000          1
H        13.22490034       5.09752145       9.96133389         0.00000000       0.00000000       0.00000000          1
6
pbc=[F, F, F] list_num_par=6 energy=-0.01714512 iter=79 frozen=false Lattice="15.00000000 0.00000000 0.00000000 0.00000000 15.00000000 0.00000000 0.00000000 0.00000000 15.00000000" energy_frozen_part=0.00000000 Properties=species:S:1:pos:R:3:velocities:R:3:Z:I:1
H        12.90446703      14.09424515      12.28685436         0.00000000       0.00000000       0.00000000          1
H         1.81449437       9.25697497      14.41109306         0.00000000       0.00000000       0.00000000          1
H         1.07620946       9.96140800      10.19495368         0.00000000       0.00000000       0.00000000          1
H         1.69993115       2.39264704       1.02210451         0.00000000       0.00000000       0.00000000          1
H        10.35311620       8.01674113       4.24103893         0.00000000       0.00000000       0.00000000          1
H         4.29104572      14.73826950      12.86181692         0.00000000       0.00000000       0.00000000          1
6
pbc=[F, F, F] list_num_par=6 energy=-0.02102846 iter=89 frozen=false Lattice="15.00000000 0.00000000 0.00000000 0.00000000 15.00000000 0.00000000 0.00000000 0.00000000 15.00000000" energy_frozen_part=0.00000000 Properties=species:S:1:pos:R:3:velocities:R:3:Z:I:1
H         6.68974107      11.06419904       3.22076638         0.00000000       0.00000000       0.00000000          1
H        11.46240456      14.59930960      10.05395233         0.00000000       0.00000000       0.00000000          1
H        10.89144134       9.90931879       1.98657419         0.00000000       0.00000000       0.00000000          1
H        10.51394503       2.26476697       6.26596982         0.00000000       0.00000000       0.00000000          1
H        12.66891574       3.54645168      11.62179223         0.00000000       0.00000000       0.00000000          1
H         6.85676675       6.49663787       6.20542222         0.00000000       0.00000000       0.00000000          1
6
pbc=[F, F, F] list_num_par=6 energy=-0.02675792 iter=99 frozen=false Lattice="15.00000000 0.00000000 0.00000000 0.00000000 15.00000000 0.00000000 0.00000000 0.00000000 15.00000000" energy_frozen_part=0.00000000 Properties=species:S:1:pos:R:3:velocities:R:3:Z:I:1
H         1.92810005      14.96543064       4.06708660         0.00000000       0.00000000       0.00000000          1
H         0.19647161       5.60639364       5.99964423         0.00000000       0.00000000       0.00000000          1
H        14.68343064      10.74261424       7.20708085         0.00000000       0.00000000       0.00000000          1
H         7.42238222       9.80523614       5.02998952         0.00000000       0.00000000       0.00000000          1
H        10.92547278       7.85891621       4.59101530         0.00000000       0.00000000       0.00000000          1
H        14.83852157       2.36199058       7.77084852         0.00000000       0.00000000       0.00000000          1
6
pbc=[F, F, F] list_num_par=6 energy=-0.03412452 iter=109 frozen=false Lattice="15.00000000 0.00000000 0.00000000 0.00000000 15.00000000 0.00000000 0.00000000 0.00000000 15.00000000" energy_frozen_part=0.00000000 Properties=species:S:1:pos:R:3:velocities:R:3:Z:I:1
H        11.54324022       6.80830980       3.20249267         0.00000000       0.00000000       0.00000000          1
H         6.56509524      13.00967150       1.73961846         0.00000000       0.00000000       0.00000000          1
H         6.85980363       3.82679930       9.36539026         0.00000000       0.00000000       0.00000000          1
H         8.87454264       3.64893840       2.06678710         0.00000000       0.00000000       0.00000000          1
H         8.49892405       0.31502043       4.66673245         0.00000000       0.00000000       0.00000000          1
H         2.67095821      13.06043504      12.09239959         0.00000000       0.00000000       0.00000000          1
6
pbc=[F, F, F] list_num_par=6 energy=-0.03879649 iter=119 frozen=false Lattice="15.00000000 0.00000000 0.00000000 0.00000000 15.00000000 0.00000000 0.00000000 0.00000000 15.00000000" energy_frozen_part=0.00000000 Properties=species:S:1:pos:R:3:velocities:R:3:Z:I:1
H         5.26368280       5.91273240       8.44875221         0.00000000       0.00000000       0.00000000          1
H         8.28626025       7.29751310      12.55897635         0.00000000       0.00000000       0.00000000          1
H         2.65755270       3.89193169       0.23487585         0.00000000       0.00000000       0.00000000          1
H         9.37741412       4.95461241       4.05777595         0.00000000       0.00000000       0.00000000          1
H        14.00957859       0.50082155       9.39746123         0.00000000       0.00000000       0.00000000          1
H         3.91669440       2.79815008       3.71560114         0.00000000       0.00000000       0.00000000          1
6
pbc=[F, F, F] list_num_par=6 energy=-0.04310198 iter=129 frozen=false Lattice="15.00000000 0.00000000 0.00000000 0.00000000 15.00000000 0.00000000 0.00000000 0.00000000 15.00000000" energy_frozen_part=0.00000000 Properties=species:S:1:pos:R:3:velocities:R:3:Z:I:1
H        14.44737565       4.22330541       0.51683644         0.00000000       0.00000000       0.00000000          1
H        11.58902512       3.48745530      10.37233497         0.00000000       0.00000000       0.00000000          1
H         3.94587609       7.28443002       2.73187135         0.00000000       0.00000000       0.00000000          1
H         6.75309248       5.11502372       2.16413587         0.00000000       0.00000000       0.00000000          1
H         3.90604670       4.95624836      11.53676242         0.00000000       0.00000000       0.00000000          1
H         0.50715154       9.63585368      10.12916828         0.00000000       0.00000000       0.00000000          1
6
pbc=[F, F, F] list_num_par=6 energy=-0.04838178 iter=139 frozen=false Lattice="15.00000000 0.00000000 0.00000000 0.00000000 15.00000000 0.00000000 0.00000000 0.00000000 15.00000000" energy_frozen_part=0.00000000 Properties=species:S:1:pos:R:3:velocities:R:3:Z:I:1
H        12.18597609      11.93045648      11.44413430         0.00000000       0.00000000       0.00000000          1
H         6.98221467      12.85817586       5.16194974         0.00000000       0.00000000       0.00000000          1
H        11.91103888       7.62554327      10.66118460         0.00000000       0.00000000       0.00000000          1
H         1.55511948       8.44540717      13.16308055         0.00000000       0.00000000       0.00000000          1
H         4.14987476       3.94874248       2.28093066         0.00000000       0.00000000       0.00000000          1
H        11.28465792       4.19816632       9.43252505         0.00000000       0.00000000       0.00000000          1
6
pbc=[F, F, F] list_num_par=6 energy=-0.05170963 iter=149 frozen=false Lattice="15.00000000 0.00000000 0.00000000 0.00000000 15.00000000 0.00000000 0.00000000 0.00000000 15.00000000" energy_frozen_part=0.00000000 Properties=species:S:1:pos:R:3:velocities:R:3:Z:I:1
H        14.76394336       3.96530574       0.20460689         0.00000000       0.00000000       0.00000000          1
H         3.62492547       7.55899229       9.26429455         0.00000000       0.00000000       0.00000000          1
H         3.52260226       1.42603721      10.79701943         0.00000000       0.00000000       0.00000000          1
H        14.77687430       0.52808164       0.12473080         0.00000000       0.00000000       0.00000000          1
H        10.95032728      13.03009478       4.55970785         0.00000000       0.00000000       0.00000000          1
H        13.98549238       9.02459585      13.99466329         0.00000000       0.00000000       0.00000000          1
6
pbc=[F, F, F] list_num_par=6 energy=-0.05616990 iter=159 frozen=false Lattice="15.00000000 0.00000000 0.00000000 0.00000000 15.00000000 0.00000000 0.00000000 0.00000000 15.00000000" energy_frozen_part=0.00000000 Properties=species:S:1:pos:R:3:velocities:R:3:Z:I:1
H         3.54729262       1.16074241       5.87420576         0.00000000       0.00000000       0.00000000          1
H        14.00605408       2.10106790       1.46278539         0.00000000       0.00000000       0.00000000          1
H         3.20650713      12.25793838       6.33646768         0.00000000       0.00000000       0.00000000          1
H         0.53146379      11.99429721       2.89140889         0.00000000       0.00000000       0.00000000          1
H         2.24399292      11.20403815       9.60070274         0.00000000       0.00000000       0.00000000          1
H         8.49949860       1.36295334      14.24685879         0.00000000       0.00000000       0.00000000          1
6
pbc=[F, F, F] list_num_par=6 energy=-0.05970156 iter=169 frozen=false Lattice="15.00000000 0.00000000 0.00000000 0.00000000 15.00000000 0.00000000 0.00000000 0.00000000 15.00000000" energy_frozen_part=0.00000000 Properties=species:S:1:pos:R:3:velocities:R:3:Z:I:1
H         0.87612041       7.34727200      10.54849785         0.00000000       0.00000000       0.00000000          1
H        11.13072000       5.64189575      11.13558622         0.00000000       0.00000000       0.00000000          1
H         8.22056425      11.44499222      13.15287810         0.00000000       0.00000000       0.00000000          1
H         9.54675515      14.14627565       2.83427880         0.00000000       0.00000000       0.00000000          1
H        12.76801246      12.73368287      11.03040033         0.00000000       0.00000000       0.00000000          1
H        14.06891421       3.95511974      11.43555900         0.00000000       0.00000000       0.00000000          1
6
pbc=[F, F, F] list_num_par=6 energy=-0.06574399 iter=179 frozen=false Lattice="15.00000000 0.00000000 0.00000000 0.00000000 15.00000000 0.00000000 0.00000000 0.00000000 15.00000000" energy_frozen_part=0.00000000 Properties=species:S:1:pos:R:3:velocities:R:3:Z:I:1
H         0.90406614       7.30122300      10.66609693         0.00000000       0.00000000       0.00000000          1
H        11.07681167       5.63808734      11.18238544         0.00000000       0.00000000       0.00000000          1
H         8.15849130      11.48586765      13.14255248         0.00000000       0.00000000       0.00000000          1
H         9.46396962      14.00071407       2.76910261         0.00000000       0.00000000       0.00000000          1
H        12.82254682      12.71279110      11.10392465         0.00000000       0.00000000       0.00000000          1
H        13.96095348       4.00268365      11.38268581         0.00000000       0.00000000       0.00000000          1
6
pbc=[F, F, F] list_num_par=6 energy=-0.07238176 iter=189 frozen=false Lattice="15.00000000 0.00000000 0.00000000 0.00000000 15.00000000 0.00000000 0.00000000 0.00000000 15.00000000" energy_frozen_part=0.00000000 Properties=species:S:1:pos:R:3:velocities:R:3:Z:I:1
H         9.85093860       8.56165662       8.71638818         0.00000000       0.00000000       0.00000000          1
H         4.07439555      10.97924691       9.72703539         0.00000000       0.00000000       0.00000000          1
H         8.01076862      10.89378789       6.58279487         0.00000000       0.00000000       0.00000000          1
H         1.40563180       6.31625346       5.14654003         0.00000000       0.00000000       0.00000000          1
H        14.50352812      14.86833696       3.46436543         0.00000000       0.00000000       0.00000000          1
H         3.60201427       9.79593743      13.38146148         0.00000000       0.00000000       0.00000000          1
6
pbc=[F, F, F] list_num_par=6 energy=-0.07766909 iter=199 frozen=false Lattice="15.00000000 0.00000000 0.00000000 0.00000000 15.00000000 0.00000000 0.00000000 0.00000000 15.00000000" energy_frozen_part=0.00000000 Properties=species:S:1:pos:R:3:velocities:R:3:Z:I:1
H        14.69416655       5.50101948       1.75796233         0.00000000       0.00000000       0.00000000          1
H        12.18514847       8.81127014       1.28270674         0.00000000       0.00000000       0.00000000          1
H         2.84284039       7.77665150       1.43745646         0.00000000       0.00000000       0.00000000          1
H         7.64134501       2.25934819       9.74073818         0.00000000       0.00000000       0.00000000          1
H         7.58871340      10.77802875       6.29749013         0.00000000       0.00000000       0.00000000          1
H        14.76864065       2.20543158       2.25303851         0.00000000       0.00000000       0.00000000          1
6
pbc=[F, F, F] list_num_par=6 energy=-0.08454952 iter=209 frozen=false Lattice="15.00000000 0.00000000 0.00000000 0.00000000 15.00000000 0.00000000 0.00000000 0.00000000 15.00000000" energy_frozen_part=0.00000000 Properties=species:S:1:pos:R:3:velocities:R:3:Z:I:1
H         5.08419358       9.90774773       6.38909574         0.00000000       0.00000000       0.00000000          1
H         3.73511976       9.94805378      12.39527740         0.00000000       0.00000000       0.00000000          1
H         7.23246584      13.08634475      10.43008148         0.00000000       0.00000000       0.00000000          1
H         0.74359195       8.23185274      10.74113938         0.00000000       0.00000000       0.00000000          1
H         8.08116557       9.02669951       4.54996570         0.00000000       0.00000000       0.00000000          1
H        10.52408262      11.35562757       0.59201674         0.00000000       0.00000000       0.00000000          1
6
pbc=[F, F, F] list_num_par=6 energy=-0.08824697 iter=219 frozen=false Lattice="15.00000000 0.00000000 0.00000000 0.00000000 15.00000000 0.00000000 0.00000000 0.00000000 15.00000000" energy_frozen_part=0.00000000 Properties=species:S:1:pos:R:3:velocities:R:3:Z:I:1
H        11.49944679       2.02839853      11.52323151         0.00000000       0.00000000       0.00000000          1
H         5.45791125      11.26924462      10.11832686         0.00000000       0.00000000       0.00000000          1
H         6.57666934       8.72667199      11.94480365         0.00000000       0.00000000       0.00000000          1
H         4.79758090       9.27020179       6.72010182         0.00000000       0.00000000       0.00000000          1
H        13.35273426      11.17656548       7.86948711         0.00000000       0.00000000       0.00000000          1
H        12.35639937      10.27384607      14.31414763         0.00000000       0.00000000       0.00000000          1
6
pbc=[F, F, F] list_num_par=6 energy=-0.09258132 iter=229 frozen=false Lattice="15.00000000 0.00000000 0.00000000 0.00000000 15.00000000 0.00000000 0.00000000 0.00000000 15.00000000" energy_frozen_part=0.00000000 Properties=species:S:1:pos:R:3:velocities:R:3:Z:I:1
H        11.90698078       5.08388331       3.03683394         0.00000000       0.00000000       0.00000000          1
H        14.05586758       0.88114702       4.51276707         0.00000000       0.00000000       0.00000000          1
H         6.11725918       6.91389112      11.33685613         0.00000000       0.00000000       0.00000000          1
H        10.12044921       7.94014378       2.94468403         0.00000000       0.00000000       0.00000000          1
H         1.09919544       3.78702676      11.73680750         0.00000000       0.00000000       0.00000000          1
H         2.84812828       8.53625866       9.86340848         0.00000000       0.00000000       0.00000000          1
6
pbc=[F, F, F] list_num_par=6 energy=-0.09419093 iter=239 frozen=false Lattice="15.00000000 0.00000000 0.00000000 0.00000000 15.00000000 0.00000000 0.00000000 0.00000000 15.00000000" energy_frozen_part=0.00000000 Properties=species:S:1:pos:R:3:velocities:R:3:Z:I:1
H         5.30378355       8.00915344       5.52985871         0.00000000       0.00000000       0.00000000          1
H         0.81787413      14.37787863       3.68838801         0.00000000       0.00000000       0.00000000          1
H         9.67320981       2.28894569       5.84206702         0.00000000       0.00000000       0.00000000          1
H        11.94891082       4.03948824       2.10306378         0.00000000       0.00000000       0.00000000          1
H         7.19560302      10.20952697       4.56010875         0.00000000       0.00000000       0.00000000          1
H         1.72100569       3.67608250      11.48457969         0.00000000       0.00000000       0.00000000          1
6
pbc=[F, F, F] list_num_par=6 energy=-0.09611904 iter=249 frozen=false Lattice="15.00000000 0.00000000 0.00000000 0.00000000 15.00000000 0.00000000 0.00000000 0.00000000 15.00000000" energy_frozen_part=0.00000000 Properties=species:S:1:pos:R:3:velocities:R:3:Z:I:1
H         9.11199662       9.24936883       7.86703536         0.00000000       0.00000000       0.00000000          1
H         7.45856578      14.88513077       0.79749903         0.00000000       0.00000000       0.00000000          1
H         6.52733541       9.06196264       6.41769906         0.00000000       0.00000000       0.00000000          1
H         0.19538778       3.77528540       7.92358984         0.00000000       0.00000000       0.00000000          1
H        12.66197481      14.29627994       5.39782838         0.00000000       0.00000000       0.00000000          1
H        10.51736809       3.40540597       9.52792368         0.00000000       0.00000000       0.00000000          1
6
pbc=[F, F, F] list_num_par=6 energy=-0.09904896 iter=259 frozen=false Lattice="15.00000000 0.00000000 0.00000000 0.00000000 15.00000000 0.00000000 0.00000000 0.00000000 15.00000000" energy_frozen_part=0.00000000 Properties=species:S:1:pos:R:3:velocities:R:3:Z:I:1
H         0.21949974       5.23365769       5.15438923         0.00000000       0.00000000       0.00000000          1
H         3.12647108       4.69732613      10.72439909         0.00000000       0.00000000       0.00000000          1
H         1.21560458       4.99396820       2.79414100         0.00000000       0.00000000       0.00000000          1
H         0.32435144      11.53170817       5.16916793         0.00000000       0.00000000       0.00000000          1
H        11.43296194      11.49800292       6.86292374         0.00000000       0.00000000       0.00000000          1
H         3.85968843       2.74620467       1.76442825         0.00000000       0.00000000       0.00000000          1
6
pbc=[F, F, F] list_num_par=6 energy=-0.10076232 iter=269 frozen=false Lattice="15.00000000 0.00000000 0.00000000 0.00000000 15.00000000 0.00000000 0.00000000 0.00000000 15.00000000" energy_frozen_part=0.00000000 Properties=species:S:1:pos:R:3:velocities:R:3:Z:I:1
H         9.24458411       7.08289893      12.34764301         0.00000000       0.00000000       0.00000000          1
H         4.95453050      14.55718663       8.55389230         0.00000000       0.00000000       0.00000000          1
H        13.89584308       7.46172364       2.29326660         0.00000000       0.00000000       0.00000000          1
H         5.29067912       3.73695061       3.57628270         0.00000000       0.00000000       0.00000000          1
H         7.05838085       7.53839217      10.75106386         0.00000000       0.00000000       0.00000000          1
H         9.71304930       1.33968091       7.99285921         0.00000000       0.00000000       0.00000000          1
6
pbc=[F, F, F] list_num_par=6 energy=-0.10245332 iter=279 frozen=false Lattice="15.00000000 0.00000000 0.00000000 0.00000000 15.00000000 0.00000000 0.00000000 0.00000000 15.00000000" energy_frozen_part=0.00000000 Properties=species:S:1:pos:R:3:velocities:R:3:Z:I:1
H         4.62265764      14.81978551      10.63401492         0.00000000       0.00000000       0.00000000          1
H        11.65911621       3.58608977       4.07435692         0.00000000       0.00000000       0.00000000          1
H         6.53847572      14.24445707       3.85261586         0.00000000       0.00000000       0.00000000          1
H         1.65803408      13.06713500       3.14405966         0.00000000       0.00000000       0.00000000          1
H        13.65753021       3.31865199      13.94173387         0.00000000       0.00000000       0.00000000          1
H        12.16092219       6.04014567       2.59089681         0.00000000       0.00000000       0.00000000          1
6
pbc=[F, F, F] list_num_par=6 energy=-0.10423907 iter=289 frozen=false Lattice="15.00000000 0.00000000 0.00000000 0.00000000 15.00000000 0.00000000 0.00000000 0.00000000 15.00000000" energy_frozen_part=0.00000000 Properties=species:S:1:pos:R:3:velocities:R:3:Z:I:1
H        11.19244722       5.51085245       2.83103507         0.00000000       0.00000000       0.00000000          1
H         8.25277583       5.71226096       2.27596687         0.00000000       0.00000000       0.00000000          1
H         3.98852825       4.17354810       0.63300101         0.00000000       0.00000000       0.00000000          1
H        11.24001407       2.57034098      10.69632438         0.00000000       0.00000000       0.00000000          1
H         8.51648942      14.64301251       5.30277488         0.00000000       0.00000000       0.00000000          1
H        14.97635701       6.60455790       5.92521625         0.00000000       0.00000000       0.00000000          1
6
pbc=[F, F, F] list_num_par=6 energy=-0.10664629 iter=299 frozen=false Lattice="15.00000000 0.00000000 0.00000000 0.00000000 15.00000000 0.00000000 0.00000000 0.00000000 15.00000000" energy_frozen_part=0.00000000 Properties=species:S:1:pos:R:3:velocities:R:3:Z:I:1
H         3.69020434      13.45870939      12.50217219         0.00000000       0.00000000       0.00000000          1
H         9.13456306      10.30303598      11.98496475         0.00000000       0.00000000       0.00000000          1
H         5.58737243       9.44244379      11.96685044         0.00000000       0.00000000       0.00000000          1
H         7.02352756       6.51535831      10.60124743         0.00000000       0.00000000       0.00000000          1
H        12.44208480       2.07848206       1.83684431         0.00000000       0.00000000       0.00000000          1
H        13.16236209       6.55107272       6.94597442         0.00000000       0.00000000       0.00000000          1
6
pbc=[F, F, F] list_num_par=6 energy=-0.11009178 iter=309 frozen=false Lattice="15.00000000 0.00000000 0.00000000 0.00000000 15.00000000 0.00000000 0.00000000 0.00000000 15.00000000" energy_frozen_part=0.00000000 Properties=species:S:1:pos:R:3:velocities:R:3:Z:I:1
H         9.54240113       5.32838848       2.43080349         0.00000000       0.00000000       0.00000000          1
H         0.60565265       6.86291899       0.01059529         0.00000000       0.00000000       0.00000000          1