6
pbc=[F, F, F] list_num_par=6 frozen=false iter=9 energy=1.08606225 Lattice="15.00000000 0.00000000 0.00000000 0.00000000 15.00000000 0.00000000 0.00000000 0.00000000 15.00000000" energy_frozen_part=0.00000000 Properties=species:S:1:pos:R:3:velocities:R:3:Z:I:1
H         3.74433453       0.10290319       8.58042560         0.00000000       0.00000000       0.00000000          1
H        10.18881709       3.04756957       7.45174041         0.00000000       0.00000000       0.00000000          1
H         9.13333862       4.68804524       6.46142938         0.00000000       0.00000000       0.00000000          1
H        13.63159458       8.10886991       0.63877172         0.00000000       0.00000000       0.00000000          1
H         0.69756326       9.70717749       5.36324237         0.00000000       0.00000000       0.00000000          1
H         4.08455221       1.89049304       6.86351511         0.00000000       0.00000000       0.00000000          1
6
pbc=[F, F, F] list_num_par=6 frozen=false iter=19 energy=0.03165150 Lattice="15.00000000 0.00000000 0.00000000 0.00000000 15.00000000 0.00000000 0.00000000 0.00000000 15.00000000" energy_frozen_part=0.00000000 Properties=species:S:1:pos:R:3:velocities:R:3:Z:I:1
H        10.22036289      10.49651905       4.73899707         0.00000000       0.00000000       0.00000000          1
H        12.38909002       9.44373634       4.33221775         0.00000000       0.00000000       0.00000000          1
H        14.85897496       5.63899238      12.44052260         0.00000000       0.00000000       0.00000000          1
H        13.43705677      13.22404334       3.38436400         0.00000000       0.00000000       0.00000000          1
H         3.55702236      14.45576804       2.61642197         0.00000000       0.00000000       0.00000000          1
H         4.72785316       8.11479669      12.66869327         0.00000000       0.00000000       0.00000000          1
6
pbc=[F, F, F] list_num_par=6 frozen=false iter=29 energy=-0.00484613 Lattice="15.00000000 0.00000000 0.00000000 0.00000000 15.00000000 0.00000000 0.00000000 0.00000000 15.00000000" energy_frozen_part=0.00000000 Properties=species:S:1:pos:R:3:velocities:R:3:Z:I:1
H         1.75139926      14.33264983       6.17978878         0.00000000       0.00000000       0.00000000          1
H         0.96799069       2.02140702      11.75707100         0.00000000       0.00000000       0.00000000          1
H         9.95085846      13.81990363       7.81809892         0.00000000       0.00000000       0.00000000          1
H         4.36924548       5.51736347       3.01341272         0.00000000       0.00000000       0.00000000          1
H        12.33822262       4.64698932      14.30815308         0.00000000       0.00000000       0.00000000          1
H         4.72056885      11.28828647       2.04097011         0.00000000       0.00000000       0.00000000          1
6
pbc=[F, F, F] list_num_par=6 frozen=false iter=39 energy=-0.00894569 Lattice="15.00000000 0.00000000 0.00000000 0.00000000 15.00000000 0.00000000 0.00000000 0.00000000 15.00000000" energy_frozen_part=0.00000000 Properties=species:S:1:pos:R:3:velocities:R:3:Z:I:1
H        14.49377248       2.87209716       1.44648285         0.00000000       0.00000000       0.00000000          1
H         2.35600764       9.28124985       4.63886727         0.00000000       0.00000000       0.00000000          1
H         4.34595197       2.29651925      12.55671106         0.00000000       0.00000000       0.00000000          1
H         6.58138733      14.15102267       9.40382220         0.00000000       0.00000000       0.00000000          1
H         7.34420445       3.72117350       8.69970016         0.00000000       0.00000000       0.00000000          1
H         7.33280026       4.88343629       2.73920022         0.00000000       0.00000000       0.00000000          1
6
pbc=[F, F, F] list_num_par=6 frozen=false iter=49 energy=-0.01371013 Lattice="15.00000000 0.00000000 0.00000000 0.00000000 15.00000000 0.00000000 0.00000000 0.00000000 15.00000000" energy_frozen_part=0.00000000 Properties=species:S:1:pos:R:3:velocities:R:3:Z:I:1
H         5.73003600       6.25201805       9.18931079         0.00000000       0.00000000       0.00000000          1
H         6.64923779       2.70410136       0.31230786         0.00000000       0.00000000       0.00000000          1
H         1.91425115       5.76941466       6.76708535         0.00000000       0.00000000       0.00000000          1
H         0.38837002       8.23557391      12.68758507         0.00000000       0.00000000       0.00000000          1
H         3.97053921      14.92266527      14.44847301         0.00000000       0.00000000       0.00000000          1
H        13.25235469       4.71636067       3.43731850         0.00000000       0.00000000       0.00000000          1
6
pbc=[F, F, F] list_num_par=6 frozen=false iter=59 energy=-0.01761467 Lattice="15.00000000 0.00000000 0.00000000 0.00000000 15.00000000 0.00000000 0.00000000 0.00000000 15.00000000" energy_frozen_part=0.00000000 Properties=species:S:1:pos:R:3:velocities:R:3:Z:I:1
H         0.22644505       8.68063404       5.38644259         0.00000000       0.00000000       0.00000000          1
H         9.24353843      13.26425442       9.61595112         0.00000000       0.00000000       0.00000000          1
H         6.06726705       6.71278632      13.89783332         0.00000000       0.00000000       0.00000000          1
H        10.03232914      12.68014270       3.99376656         0.00000000       0.00000000       0.00000000          1
H         9.58629425       3.85295116      11.84623420         0.00000000       0.00000000       0.00000000          1
H        14.24475091      14.88884465       3.88688253         0.00000000       0.00000000       0.00000000          1
6
pbc=[F, F, F] list_num_par=6 frozen=false iter=69 energy=-0.02177090 Lattice="15.00000000 0.00000000 0.00000000 0.00000000 15.00000000 0.00000000 0.00000000 0.00000000 15.00000000" energy_frozen_part=0.00000000 Properties=species:S:1:pos:R:3:velocities:R:3:Z:I:1
H         4.90559659       4.21163926       0.63482871         0.00000000       0.00000000       0.00000000          1
H         0.62506347       5.41644530       7.84119811         0.00000000       0.00000000       0.00000000          1
H        12.61263233      14.91473739       4.37319928         0.00000000       0.00000000       0.00000000          1
H        10.38795300       9.55087591      11.23089018         0.00000000       0.00000000       0.00000000          1
H         0.18450104      12.44959055       7.00793118         0.00000000       0.00000000       0.00000000          1
H         2.43366862       2.92563691      10.47092373         0.00000000       0.00000000       0.00000000          1
6
pbc=[F, F, F] list_num_par=6 frozen=false iter=79 energy=-0.02997946 Lattice="15.00000000 0.00000000 0.00000000 0.00000000 15.00000000 0.00000000 0.00000000 0.00000000 15.00000000" energy_frozen_part=0.00000000 Properties=species:S:1:pos:R:3:velocities:R:3:Z:I:1
H         1.99616317       0.70636864       0.07009689         0.00000000       0.00000000       0.00000000          1
H        12.00874357       3.40397710       7.78812695         0.00000000       0.00000000       0.00000000          1
H        11.19277330       1.95256557      11.39682477         0.00000000       0.00000000       0.00000000          1
H         8.63968743       7.60675744       1.16636376         0.00000000       0.00000000       0.00000000          1
H         9.88417079      12.66839780       8.94802084         0.00000000       0.00000000       0.00000000          1
H        13.02652054      14.20178295      12.42574189         0.00000000       0.00000000       0.00000000          1
6
pbc=[F, F, F] list_num_par=6 frozen=false iter=89 energy=-0.03483616 Lattice="15.00000000 0.00000000 0.00000000 0.00000000 15.00000000 0.00000000 0.00000000 0.00000000 15.00000000" energy_frozen_part=0.00000000 Properties=species:S:1:pos:R:3:velocities:R:3:Z:I:1
H         1.65833465       3.05294346       8.76230345         0.00000000       0.00000000       0.00000000          1
H        10.46645965      11.41786234      14.87275092         0.00000000       0.00000000       0.00000000          1
H        14.68052958      13.50293402      13.26204673         0.00000000       0.00000000       0.00000000          1
H         7.10161015      11.80587216      13.05498566         0.00000000       0.00000000       0.00000000          1
H         8.15914713      14.64732552       2.85978292         0.00000000       0.00000000       0.00000000          1
H         1.08726535       7.23579692       2.20268397         0.00000000       0.00000000       0.00000000          1
6
pbc=[F, F, F] list_num_par=6 frozen=false iter=99 energy=-0.04114046 Lattice="15.00000000 0.00000000 0.00000000 0.00000000 15.00000000 0.00000000 0.00000000 0.00000000 15.00000000" energy_frozen_part=0.00000000 Properties=species:S:1:pos:R:3:velocities:R:3:Z:I:1
H        14.96549489       5.47790000       8.34108220         0.00000000       0.00000000       0.00000000          1
H         1.71888298      10.75577275       6.09030660         0.00000000       0.00000000       0.00000000          1
H         3.09459710       9.86136459       4.14463533         0.00000000       0.00000000       0.00000000          1
H         6.66409092       2.25928089       8.07337059         0.00000000       0.00000000       0.00000000          1
H         8.21662557       8.50788529      12.58385967         0.00000000       0.00000000       0.00000000          1
H         6.63126833       6.40597329       1.64469005         0.00000000       0.00000000       0.00000000          1
6
pbc=[F, F, F] list_num_par=6 frozen=false iter=109 energy=-0.04636852 Lattice="15.00000000 0.00000000 0.00000000 0.00000000 15.00000000 0.00000000 0.00000000 0.00000000 15.00000000" energy_frozen_part=0.00000000 Properties=species:S:1:pos:R:3:velocities:R:3:Z:I:1
H         0.68005717       8.95650263       8.38325704         0.00000000       0.00000000       0.00000000          1
H         5.79425190       9.20184966      13.20615667         0.00000000       0.00000000       0.00000000          1
H         3.06935471       5.21961778       2.86617145         0.00000000       0.00000000       0.00000000          1
H         0.20489657       4.39878302       6.81685833         0.00000000       0.00000000       0.00000000          1
H         1.56425044       4.56766946      11.02823450         0.00000000       0.00000000       0.00000000          1
H         7.46010146       5.32659793       3.44810495         0.00000000       0.00000000       0.00000000          1
6
pbc=[F, F, F] list_num_par=6 frozen=false iter=119 energy=-0.05342468 Lattice="15.00000000 0.00000000 0.00000000 0.00000000 15.00000000 0.00000000 0.00000000 0.00000000 15.00000000" energy_frozen_part=0.00000000 Properties=species:S:1:pos:R:3:velocities:R:3:Z:I:1
H         1.30408482       7.96301479      13.81105036         0.00000000       0.00000000       0.00000000          1
H         5.85909565       4.62646448       4.20507059         0.00000000       0.00000000       0.00000000          1
H         9.37181432      10.03006806      12.16959192         0.00000000       0.00000000       0.00000000          1
H        10.33025221       1.29988104      13.26736318         0.00000000       0.00000000       0.00000000          1
H         3.45359395      10.40517345      12.60867625         0.00000000       0.00000000       0.00000000          1
H         4.75491483       0.31437094      13.86863997         0.00000000       0.00000000       0.00000000          1
6
pbc=[F, F, F] list_num_par=6 frozen=false iter=129 energy=-0.05687652 Lattice="15.00000000 0.00000000 0.00000000 0.00000000 15.00000000 0.00000000 0.00000000 0.00000000 15.00000000" energy_frozen_part=0.00000000 Properties=species:S:1:pos:R:3:velocities:R:3:Z:I:1
H         6.85188273       4.98492050      12.92485926         0.00000000       0.00000000       0.00000000          1
H         6.04436048       0.94143296       2.91273100         0.00000000       0.00000000       0.00000000          1
H         0.96122022       2.73063083       9.29660613         0.00000000       0.00000000       0.00000000          1
H         0.39704231       0.77727798       6.29793606         0.00000000       0.00000000       0.00000000          1
H         8.01846330       2.17265524       6.50307038         0.00000000       0.00000000       0.00000000          1
H         1.52730078      13.74440007       9.59156058         0.00000000       0.00000000       0.00000000          1
6
pbc=[F, F, F] list_num_par=6 frozen=false iter=139 energy=-0.06045131 Lattice="15.00000000 0.00000000 0.00000000 0.00000000 15.00000000 0.00000000 0.00000000 0.00000000 15.00000000" energy_frozen_part=0.00000000 Properties=species:S:1:pos:R:3:velocities:R:3:Z:I:1
H        12.44852356      13.28330472       5.20205752         0.00000000       0.00000000       0.00000000          1
H         4.38797749       7.49502798      11.37345897         0.00000000       0.00000000       0.00000000          1
H         3.54349540       4.88133140      13.29432429         0.00000000       0.00000000       0.00000000          1
H        10.51869615       2.95747275       2.85854090         0.00000000       0.00000000       0.00000000          1
H        12.69821483       3.02468753      14.78558352         0.00000000       0.00000000       0.00000000          1
H         8.61818285       1.44417735      10.53855062         0.00000000       0.00000000       0.00000000          1
6
pbc=[F, F, F] list_num_par=6 frozen=false iter=149 energy=-0.06669357 Lattice="15.00000000 0.00000000 0.00000000 0.00000000 15.00000000 0.00000000 0.00000000 0.00000000 15.00000000" energy_frozen_part=0.00000000 Properties=species:S:1:pos:R:3:velocities:R:3:Z:I:1
H         8.93014307      12.21552637      10.76605730         0.00000000       0.00000000       0.00000000          1
H         7.18570147       6.50336149       8.34506650         0.00000000       0.00000000       0.00000000          1
H         2.27087993       8.31252687      13.71354682         0.00000000       0.00000000       0.00000000          1
H         1.52996633       8.88811863       2.01213668         0.00000000       0.00000000       0.00000000          1
H        12.28891145       3.44123349       9.33958805         0.00000000       0.00000000       0.00000000          1
H         5.84523537      13.20988946      11.39674444         0.00000000       0.00000000       0.00000000          1
6
pbc=[F, F, F] list_num_par=6 frozen=false iter=159 energy=-0.07182689 Lattice="15.00000000 0.00000000 0.00000000 0.00000000 15.00000000 0.00000000 0.00000000 0.00000000 15.00000000" energy_frozen_part=0.00000000 Properties=species:S:1:pos:R:3:velocities:R:3:Z:I:1
H        10.70854376       0.11565785       6.00671287         0.00000000       0.00000000       0.00000000          1
H         0.37723677       1.53268090       9.71496929         0.00000000       0.00000000       0.00000000          1
H         2.24143219       3.98322552       8.18793904         0.00000000       0.00000000       0.00000000          1
H        10.88822912       9.71565844       3.00171618         0.00000000       0.00000000       0.00000000          1
H         5.26651236       3.50825963       5.38842384         0.00000000       0.00000000       0.00000000          1
H         6.78408621      14.04045479       5.94577655         0.00000000       0.00000000       0.00000000          1
6
pbc=[F, F, F] list_num_par=6 frozen=false iter=169 energy=-0.07724509 Lattice="15.00000000 0.00000000 0.00000000 0.00000000 15.00000000 0.00000000 0.00000000 0.00000000 15.00000000" energy_frozen_part=0.00000000 Properties=species:S:1:pos:R:3:velocities:R:3:Z:I:1
H         4.27793835       5.45905172       1.83741685         0.00000000       0.00000000       0.00000000          1
H         9.72944944       7.77580208       9.86900285         0.00000000       0.00000000       0.00000000          1
H         6.19747032      11.70431660       8.66629252         0.00000000       0.00000000       0.00000000          1
H        10.29748467      11.28933877       2.19531041         0.00000000       0.00000000       0.00000000          1
H        13.56058599       2.99219673      13.22118652         0.00000000       0.00000000       0.00000000          1
H        13.21015214      11.25155960       3.48202755         0.00000000       0.00000000       0.00000000          1
6
pbc=[F, F, F] list_num_par=6 frozen=false iter=179 energy=-0.08292361 Lattice="15.00000000 0.00000000 0.00000000 0.00000000 15.00000000 0.00000000 0.00000000 0.00000000 15.00000000" energy_frozen_part=0.00000000 Properties=species:S:1:pos:R:3:velocities:R:3:Z:I:1
H         5.09292930       8.69912217      12.30926233         0.00000000       0.00000000       0.00000000          1
H         7.89543554       7.06045179       3.29159815         0.00000000       0.00000000       0.00000000          1
H         9.31385628       4.39590736       1.33513936         0.00000000       0.00000000       0.00000000          1
H         7.91085093       4.78038432      10.97251462         0.00000000       0.00000000       0.00000000          1
H         2.42573788       3.17573345      11.45436122         0.00000000       0.00000000       0.00000000          1
H        10.04358346       5.41270977       6.24879027         0.00000000       0.00000000       0.00000000          1
6
pbc=[F, F, F] list_num_par=6 frozen=false iter=189 energy=-0.08576013 Lattice="15.00000000 0.00000000 0.00000000 0.00000000 15.00000000 0.00000000 0.00000000 0.00000000 15.00000000" energy_frozen_part=0.00000000 Properties=species:S:1:pos:R:3:velocities:R:3:Z:I:1
H         9.92424721       1.90753883       6.90919414         0.00000000       0.00000000       0.00000000          1
H         0.83652957      11.34740678       1.82996167         0.00000000       0.00000000       0.00000000          1
H         7.48684151       2.61570125       9.26897567         0.00000000       0.00000000       0.00000000          1
H         6.60642576      12.35822208       0.82113285         0.00000000       0.00000000       0.00000000          1
H        13.91198288       2.04905356       6.19916166         0.00000000       0.00000000       0.00000000          1
H         1.48224283      13.47381337       5.60067522         0.00000000       0.00000000       0.00000000          1
6
pbc=[F, F, F] list_num_par=6 frozen=false iter=199 energy=-0.09023032 Lattice="15.00000000 0.00000000 0.00000000 0.00000000 15.00000000 0.00000000 0.00000000 0.00000000 15.00000000" energy_frozen_part=0.00000000 Properties=species:S:1:pos:R:3:velocities:R:3:Z:I:1
H        10.18754586      12.39867883       4.46892788         0.00000000       0.00000000       0.00000000          1
H        10.82794072       8.53174805       3.10995090         0.00000000       0.00000000       0.00000000          1
H        11.93441181       6.36644770      14.92715630         0.00000000       0.00000000       0.00000000          1
H        13.24320261      11.65275512       5.52208084         0.00000000       0.00000000       0.00000000          1
H         3.89434753      13.63358605       3.33356252         0.00000000       0.00000000       0.00000000          1
H         6.81856154      10.16044092      14.55081164         0.00000000       0.00000000       0.00000000          1
6
pbc=[F, F, F] list_num_par=6 frozen=false iter=209 energy=-0.09297602 Lattice="15.00000000 0.00000000 0.00000000 0.00000000 15.00000000 0.00000000 0.00000000 0.00000000 15.00000000" energy_frozen_part=0.00000000 Properties=species:S:1:pos:R:3:velocities:R:3:Z:I:1
H        14.21950819       2.57761228       2.89503492         0.00000000       0.00000000       0.00000000          1
H         3.86363767      11.33139399       8.46414394         0.00000000       0.00000000       0.00000000          1
H        13.48549238       5.75490125      12.67423207         0.00000000       0.00000000       0.00000000          1
H         4.53436006       9.54057509       4.63960890         0.00000000       0.00000000       0.00000000          1
H         0.60675111       9.29872110       9.47066254         0.00000000       0.00000000       0.00000000          1
H         3.76156146      14.11111848       6.31911235         0.00000000       0.00000000       0.00000000          1
6
pbc=[F, F, F] list_num_par=6 frozen=false iter=219 energy=-0.09687003 Lattice="15.00000000 0.00000000 0.00000000 0.00000000 15.00000000 0.00000000 0.00000000 0.00000000 15.00000000" energy_frozen_part=0.00000000 Properties=species:S:1:pos:R:3:velocities:R:3:Z:I:1
H         1.91126434       1.59804645       6.52392174         0.00000000       0.00000000       0.00000000          1
H        10.02418396       0.28104409       9.77969214         0.00000000       0.00000000       0.00000000          1
H         3.54392340       0.24438348      10.69492657         0.00000000       0.00000000       0.00000000          1
H         1.91634481       5.67875700       7.26580270         0.00000000       0.00000000       0.00000000          1
H        12.29237197       9.53325864      11.82172227         0.00000000       0.00000000       0.00000000          1
H        10.01102956       3.16783650       8.30176104         0.00000000       0.00000000       0.00000000          1
6
pbc=[F, F, F] list_num_par=6 frozen=false iter=229 energy=-0.09888164 Lattice="15.00000000 0.00000000 0.00000000 0.00000000 15.00000000 0.00000000 0.00000000 0.00000000 15.00000000" energy_frozen_part=0.00000000 Properties=species:S:1:pos:R:3:velocities:R:3:Z:I:1
H         4.96651365       0.43830873       2.36244489         0.00000000       0.00000000       0.00000000          1
H        13.07902032       4.28579594      13.41173009         0.00000000       0.00000000       0.00000000          1
H        10.84095599       4.55823263       4.59810031         0.00000000       0.00000000       0.00000000          1
H         0.74340157       2.56005965       8.03978729         0.00000000       0.00000000       0.00000000          1
H        11.07329579       2.90826373      14.61766747         0.00000000       0.00000000       0.00000000          1
H         1.59108423       4.79071960       0.47092289         0.00000000       0.00000000       0.00000000          1
6
pbc=[F, F, F] list_num_par=6 frozen=false iter=239 energy=-0.10095771 Lattice="15.00000000 0.00000000 0.00000000 0.00000000 15.00000000 0.00000000 0.00000000 0.00000000 15.00000000" energy_frozen_part=0.00000000 Properties=species:S:1:pos:R:3:velocities:R:3:Z:I:1
H        14.73593460       0.97394930       4.91673665         0.00000000       0.00000000       0.00000000          1
H        11.92458655      11.13782328      11.84051035         0.00000000       0.00000000       0.00000000          1
H        14.08670137       1.98571973       2.36558524         0.00000000       0.00000000       0.00000000          1
H         8.26808546      13.18091636       2.58388352         0.00000000       0.00000000       0.00000000          1
H         7.01977519       3.93391835       7.47783179         0.00000000       0.00000000       0.00000000          1
H         5.67273414       1.90878598       0.92708917         0.00000000       0.00000000       0.00000000          1
6
pbc=[F, F, F] list_num_par=6 frozen=false iter=249 energy=-0.10326907 Lattice="15.00000000 0.00000000 0.00000000 0.00000000 15.00000000 0.00000000 0.00000000 0.00000000 15.00000000" energy_frozen_part=0.00000000 Properties=species:S:1:pos:R:3:velocities:R:3:Z:I:1
H        10.85374456      13.32792928       2.52615466         0.00000000       0.00000000       0.00000000          1
H         4.14833009       8.82919811       2.81750239         0.00000000       0.00000000       0.00000000          1
H         7.92585242       8.70411679      14.80255399         0.00000000       0.00000000       0.00000000          1
H         9.48541770       4.31226019       9.66806027         0.00000000       0.00000000       0.00000000          1
H        10.71733876      10.65674795       1.99963998         0.00000000       0.00000000       0.00000000          1
H         0.16914437      10.40702311       5.67197132         0.00000000       0.00000000       0.00000000          1
6
pbc=[F, F, F] list_num_par=6 frozen=false iter=259 energy=-0.10590089 Lattice="15.00000000 0.00000000 0.00000000 0.00000000 15.00000000 0.00000000 0.00000000 0.00000000 15.00000000" energy_frozen_part=0.00000000 Properties=species:S:1:pos:R:3:velocities:R:3:Z:I:1
H         2.34231380       5.25317348       0.07906869         0.00000000       0.00000000       0.00000000          1
H        13.08101913      11.48000547      14.62537161         0.00000000       0.00000000       0.00000000          1
H        13.31605640       8.23197440       4.26806430         0.00000000       0.00000000       0.00000000          1
H        13.40452926      14.20017447      13.53587302         0.00000000       0.00000000       0.00000000          1
H         1.07630668       5.83727274      13.04424650         0.00000000       0.00000000       0.00000000          1
H         6.40087846       3.49463338       0.05072801         0.00000000       0.00000000       0.00000000          1
6
pbc=[F, F, F] list_num_par=6 frozen=false iter=269 energy=-0.10699554 Lattice="15.00000000 0.00000000 0.00000000 0.00000000 15.00000000 0.00000000 0.00000000 0.00000000 15.00000000" energy_frozen_part=0.00000000 Properties=species:S:1:pos:R:3:velocities:R:3:Z:I:1
H         9.83476105       4.66135678       4.39982737         0.00000000       0.00000000       0.00000000          1
H         3.54307882      12.39389985      11.99154773         0.00000000       0.00000000       0.00000000          1
H         9.39702032       5.63785996       1.81242766         0.00000000       0.00000000       0.00000000          1
H         9.07300516      12.03258680      10.53223707         0.00000000       0.00000000       0.00000000          1
H        12.48916924       1.39037251      12.10641400         0.00000000       0.00000000       0.00000000          1
H         5.64418537       1.06995247       2.30884787         0.00000000       0.00000000       0.00000000          1
6
pbc=[F, F, F] list_num_par=6 frozen=false iter=279 energy=-0.10962764 Lattice="15.00000000 0.00000000 0.00000000 0.00000000 15.00000000 0.00000000 0.00000000 0.00000000 15.00000000" energy_frozen_part=0.00000000 Properties=species:S:1:pos:R:3:velocities:R:3:Z:I:1
H         0.52842310      11.55636386      14.88400230         0.00000000       0.00000000       0.00000000          1
H         4.28967544      12.38763620       4.54239176         0.00000000       0.00000000       0.00000000          1
H         1.72078538       3.19866158       6.39467361         0.00000000       0.00000000       0.00000000          1
H         0.86105593       3.24929200       3.65802088         0.00000000       0.00000000       0.00000000          1
H         4.98128504      13.64255128      11.89761688         0.00000000       0.00000000       0.00000000          1
H         4.05428785       3.31434671      10.57817670         0.00000000       0.00000000       0.00000000          1
6
pbc=[F, F, F] list_num_par=6 frozen=false iter=289 energy=-0.11201691 Lattice="15.00000000 0.00000000 0.00000000 0.00000000 15.00000000 0.00000000 0.00000000 0.00000000 15.00000000" energy_frozen_part=0.00000000 Properties=species:S:1:pos:R:3:velocities:R:3:Z:I:1
H         5.71799685       7.62563611       9.43968190         0.00000000       0.00000000       0.00000000          1
H        10.22944723       9.28864979       8.52941387         0.00000000       0.00000000       0.00000000          1
H        11.87053378      12.59483274       5.22699410         0.00000000       0.00000000       0.00000000          1
H         1.05794305       4.80689277       3.99904101         0.00000000       0.00000000       0.00000000          1
H         6.55895686       0.68551395       1.52812550         0.00000000       0.00000000       0.00000000          1
H         9.25073645       1.64862681       1.15478204         0.00000000       0.00000000       0.00000000          1
6
pbc=[F, F, F] list_num_par=6 frozen=false iter=299 energy=-0.11555907 Lattice="15.00000000 0.00000000 0.00000000 0.00000000 15.00000000 0.00000000 0.00000000 0.00000000 15.00000000" energy_frozen_part=0.00000000 Properties=species:S:1:pos:R:3:velocities:R:3:Z:I:1
H         3.55000460       3.73308864       7.26811917         0.00000000       0.00000000       0.00000000          1
H        10.75747519       9.74481342       6.91571824         0.00000000       0.00000000       0.00000000          1
H         7.80923278      14.18074447       5.81098306         0.00000000       0.00000000       0.00000000          1
H        11.19243565      12.27226822      12.17094845         0.00000000       0.00000000       0.00000000          1
H        12.45651109       6.19478786      14.63020578         0.00000000       0.00000000       0.00000000          1
H        12.58955397       8.86655619       8.88827899         0.00000000       0.00000000       0.00000000          1
6
pbc=[F, F, F] list_num_par=6 frozen=false iter=309 energy=-0.11811613 Lattice="15.00000000 0.00000000 0.00000000 0.00000000 15.00000000 0.00000000 0.00000000 0.00000000 15.00000000" energy_frozen_part=0.00000000 Properties=species:S:1:pos:R:3:velocities:R:3:Z:I:1
H         5.23644861       7.34388680       1.38077722         0.00000000       0.00000000       0.00000000          1
H        13.28459530      13.02673928      11.58847518         0.00000000       0.00000000       0.00000000          1