6
pbc=[F, F, F] list_num_par=6 energy=-1.26974174 iter=20000 frozen=false Lattice="15.00000000 0.00000000 0.00000000 0.00000000 15.00000000 0.00000000 0.00000000 0.00000000 15.00000000" energy_frozen_part=0.00000000 Properties=species:S:1:pos:R:3:velocities:R:3:Z:I:1
H        12.00380281       3.87039912       5.09121543         0.00000000       0.00000000       0.00000000          1
H        13.50163192       6.22344083       4.93620891         0.00000000       0.00000000       0.00000000          1
H        12.63026402       4.96579160       2.59883452         0.00000000       0.00000000       0.00000000          1
H        10.00022560       5.04343087       3.53753374         0.00000000       0.00000000       0.00000000          1
H        10.87159685       6.30108100       5.87491570         0.00000000       0.00000000       0.00000000          1
H        11.49803814       7.39646535       3.38253100         0.00000000       0.00000000       0.00000000          1
6
pbc=[F, F, F] list_num_par=6 energy=-1.26974174 iter=20000 frozen=false Lattice="15.00000000 0.00000000 0.00000000 0.00000000 15.00000000 0.00000000 0.00000000 0.00000000 15.00000000" energy_frozen_part=0.00000000 Properties=species:S:1:pos:R:3:velocities:R:3:Z:I:1
H        12.00380370       3.87038732       5.09127923         0.00000000       0.00000000       0.00000000          1
H        13.50166923       6.22339640       4.93617101         0.00000000       0.00000000       0.00000000          1
H        12.63031800       4.96563137       2.59885398         0.00000000       0.00000000       0.00000000          1
H        10.00025803       5.04337650       3.53750627         0.00000000       0.00000000       0.00000000          1
H        10.87162110       6.30112967       5.87482405         0.00000000       0.00000000       0.00000000          1
H        11.49812831       7.39636749       3.38239095         0.00000000       0.00000000       0.00000000          1
6
pbc=[F, F, F] list_num_par=6 energy=-1.26974174 iter=20000 frozen=false Lattice="15.00000000 0.00000000 0.00000000 0.00000000 15.00000000 0.00000000 0.00000000 0.00000000 15.00000000" energy_frozen_part=0.00000000 Properties=species:S:1:pos:R:3:velocities:R:3:Z:I:1
H         9.76474037       1.80008078       3.62365991         0.00000000       0.00000000       0.00000000          1
H        13.65112433       1.50706448       4.27071590         0.00000000       0.00000000       0.00000000          1
H        12.01738922       3.23508554       2.80473549         0.00000000       0.00000000       0.00000000          1
H        11.88222372       0.47905052       2.36849740         0.00000000       0.00000000       0.00000000          1
H        11.39847917       0.07205975       5.08964222         0.00000000       0.00000000       0.00000000          1
H        11.53364390       2.82809119       5.52587449         0.00000000       0.00000000       0.00000000          1
6
pbc=[F, F, F] list_num_par=6 energy=-1.26974174 iter=20000 frozen=false Lattice="15.00000000 0.00000000 0.00000000 0.00000000 15.00000000 0.00000000 0.00000000 0.00000000 15.00000000" energy_frozen_part=0.00000000 Properties=species:S:1:pos:R:3:velocities:R:3:Z:I:1
H         9.76472722       1.80004109       3.62372172         0.00000000       0.00000000       0.00000000          1
H        13.65113569       1.50708865       4.27070187         0.00000000       0.00000000       0.00000000          1
H        12.01733390       3.23506676       2.80473558         0.00000000       0.00000000       0.00000000          1
H        11.88219881       0.47903316       2.36852480         0.00000000       0.00000000       0.00000000          1
H        11.39853305       0.07206469       5.08968787         0.00000000       0.00000000       0.00000000          1
H        11.53366712       2.82810681       5.52589739         0.00000000       0.00000000       0.00000000          1
6
pbc=[F, F, F] list_num_par=6 energy=-1.26974174 iter=20000 frozen=false Lattice="15.00000000 0.00000000 0.00000000 0.00000000 15.00000000 0.00000000 0.00000000 0.00000000 15.00000000" energy_frozen_part=0.00000000 Properties=species:S:1:pos:R:3:velocities:R:3:Z:I:1
H         9.76479740       1.80004207       3.62353056         0.00000000       0.00000000       0.00000000          1
H        13.65116467       1.50694320       4.27076319         0.00000000       0.00000000       0.00000000          1
H        12.01753436       3.23491349       2.80459276         0.00000000       0.00000000       0.00000000          1
H        11.88228883       0.47885659       2.36854535         0.00000000       0.00000000       0.00000000          1
H        11.39843725       0.07207353       5.08970251         0.00000000       0.00000000       0.00000000          1
H        11.53366627       2.82812641       5.52574749         0.00000000       0.00000000       0.00000000          1
6
pbc=[F, F, F] list_num_par=6 energy=-1.26974174 iter=20000 frozen=false Lattice="15.00000000 0.00000000 0.00000000 0.00000000 15.00000000 0.00000000 0.00000000 0.00000000 15.00000000" energy_frozen_part=0.00000000 Properties=species:S:1:pos:R:3:velocities:R:3:Z:I:1
H         9.76479318       1.80005879       3.62355338         0.00000000       0.00000000       0.00000000          1
H        13.65115132       1.50693125       4.27076154         0.00000000       0.00000000       0.00000000          1
H        12.01752934       3.23490371       2.80459447         0.00000000       0.00000000       0.00000000          1
H        11.88226286       0.47884818       2.36855444         0.00000000       0.00000000       0.00000000          1
H        11.39842909       0.07207515       5.08971900         0.00000000       0.00000000       0.00000000          1
H        11.53368040       2.82814076       5.52575315         0.00000000       0.00000000       0.00000000          1
6
pbc=[F, F, F] list_num_par=6 energy=-1.26974174 iter=20000 frozen=false Lattice="15.00000000 0.00000000 0.00000000 0.00000000 15.00000000 0.00000000 0.00000000 0.00000000 15.00000000" energy_frozen_part=0.00000000 Properties=species:S:1:pos:R:3:velocities:R:3:Z:I:1
H         9.75340755       1.75846085       3.60606381         0.00000000       0.00000000       0.00000000          1
H        13.64187220       1.53425389       4.26800372         0.00000000       0.00000000       0.00000000          1
H        11.98291753       3.23601464       2.79960228         0.00000000       0.00000000       0.00000000          1
H        11.89943562       0.47906926       2.35625197         0.00000000       0.00000000       0.00000000          1
H        11.41236140       0.05669002       5.07445451         0.00000000       0.00000000       0.00000000          1
H        11.49585090       2.81363504       5.51781044         0.00000000       0.00000000       0.00000000          1
6
pbc=[F, F, F] list_num_par=6 energy=-1.26974174 iter=20000 frozen=false Lattice="15.00000000 0.00000000 0.00000000 0.00000000 15.00000000 0.00000000 0.00000000 0.00000000 15.00000000" energy_frozen_part=0.00000000 Properties=species:S:1:pos:R:3:velocities:R:3:Z:I:1
H         9.76471351       1.80004444       3.62371318         0.00000000       0.00000000       0.00000000          1
H        13.65112477       1.50709300       4.27069885         0.00000000       0.00000000       0.00000000          1
H        12.01732567       3.23506808       2.80472535         0.00000000       0.00000000       0.00000000          1
H        11.88219055       0.47903284       2.36853013         0.00000000       0.00000000       0.00000000          1
H        11.39851977       0.07207212       5.08969898         0.00000000       0.00000000       0.00000000          1
H        11.53364725       2.82810860       5.52588016         0.00000000       0.00000000       0.00000000          1
6
pbc=[F, F, F] list_num_par=6 energy=-1.26974174 iter=20000 frozen=false Lattice="15.00000000 0.00000000 0.00000000 0.00000000 15.00000000 0.00000000 0.00000000 0.00000000 15.00000000" energy_frozen_part=0.00000000 Properties=species:S:1:pos:R:3:velocities:R:3:Z:I:1
H         9.76481243       1.80003817       3.62366892         0.00000000       0.00000000       0.00000000          1
H        13.65118664       1.50695068       4.27077679         0.00000000       0.00000000       0.00000000          1
H        12.01751000       3.23488744       2.80462379         0.00000000       0.00000000       0.00000000          1
H        11.88225925       0.47881671       2.36864680         0.00000000       0.00000000       0.00000000          1
H        11.39848045       0.07211045       5.08983079         0.00000000       0.00000000       0.00000000          1
H        11.53374278       2.82818367       5.52580190         0.00000000       0.00000000       0.00000000          1
6
pbc=[F, F, F] list_num_par=6 energy=-1.26974174 iter=20000 frozen=false Lattice="15.00000000 0.00000000 0.00000000 0.00000000 15.00000000 0.00000000 0.00000000 0.00000000 15.00000000" energy_frozen_part=0.00000000 Properties=species:S:1:pos:R:3:velocities:R:3:Z:I:1
H         9.76482520       1.80008720       3.62353868         0.00000000       0.00000000       0.00000000          1
H        13.65117045       1.50689956       4.27074673         0.00000000       0.00000000       0.00000000          1
H        12.01757684       3.23488988       2.80456259         0.00000000       0.00000000       0.00000000          1
H        11.88227938       0.47883209       2.36854866         0.00000000       0.00000000       0.00000000          1
H        11.39842078       0.07209655       5.08972048         0.00000000       0.00000000       0.00000000          1
H        11.53373007       2.82815743       5.52573229         0.00000000       0.00000000       0.00000000          1
6
pbc=[F, F, F] list_num_par=6 energy=-1.26974174 iter=20000 frozen=false Lattice="15.00000000 0.00000000 0.00000000 0.00000000 15.00000000 0.00000000 0.00000000 0.00000000 15.00000000" energy_frozen_part=0.00000000 Properties=species:S:1:pos:R:3:velocities:R:3:Z:I:1
H        12.00375810       3.87041130       5.09123066         0.00000000       0.00000000       0.00000000          1
H        13.50164654       6.22341106       4.93621151         0.00000000       0.00000000       0.00000000          1
H        12.63021496       4.96579954       2.59884363         0.00000000       0.00000000       0.00000000          1
H        10.00019529       5.04350522       3.53756558         0.00000000       0.00000000       0.00000000          1
H        10.87161828       6.30112500       5.87493651         0.00000000       0.00000000       0.00000000          1
H        11.49806953       7.39650331       3.38255335         0.00000000       0.00000000       0.00000000          1
6
pbc=[F, F, F] list_num_par=6 energy=-1.26974174 iter=20000 frozen=false Lattice="15.00000000 0.00000000 0.00000000 0.00000000 15.00000000 0.00000000 0.00000000 0.00000000 15.00000000" energy_frozen_part=0.00000000 Properties=species:S:1:pos:R:3:velocities:R:3:Z:I:1
H        12.00392804       3.87038545       5.09119720         0.00000000       0.00000000       0.00000000          1
H        13.50170284       6.22344867       4.93608621         0.00000000       0.00000000       0.00000000          1
H        12.63023646       4.96575533       2.59876487         0.00000000       0.00000000       0.00000000          1
H        10.00025168       5.04336746       3.53759693         0.00000000       0.00000000       0.00000000          1
H        10.87171814       6.30105377       5.87491652         0.00000000       0.00000000       0.00000000          1
H        11.49802607       7.39642921       3.38248712         0.00000000       0.00000000       0.00000000          1
6
pbc=[F, F, F] list_num_par=6 energy=-1.26974174 iter=20000 frozen=false Lattice="15.00000000 0.00000000 0.00000000 0.00000000 15.00000000 0.00000000 0.00000000 0.00000000 15.00000000" energy_frozen_part=0.00000000 Properties=species:S:1:pos:R:3:velocities:R:3:Z:I:1
H        12.00373849       3.87041542       5.09123262         0.00000000       0.00000000       0.00000000          1
H        13.50165110       6.22339385       4.93621263         0.00000000       0.00000000       0.00000000          1
H        12.63020867       4.96578814       2.59884968         0.00000000       0.00000000       0.00000000          1
H        10.00018186       5.04352523       3.53756170         0.00000000       0.00000000       0.00000000          1
H        10.87161676       6.30112996       5.87493974         0.00000000       0.00000000       0.00000000          1
H        11.49809609       7.39650913       3.38255730         0.00000000       0.00000000       0.00000000          1
6
pbc=[F, F, F] list_num_par=6 energy=-1.26974174 iter=20000 frozen=false Lattice="15.00000000 0.00000000 0.00000000 0.00000000 15.00000000 0.00000000 0.00000000 0.00000000 15.00000000" energy_frozen_part=0.00000000 Properties=species:S:1:pos:R:3:velocities:R:3:Z:I:1
H         9.76473634       1.80006374       3.62367110         0.00000000       0.00000000       0.00000000          1
H        13.65113169       1.50706962       4.27070944         0.00000000       0.00000000       0.00000000          1
H        12.01737507       3.23506038       2.80472087         0.00000000       0.00000000       0.00000000          1
H        11.88221282       0.47902724       2.36850746         0.00000000       0.00000000       0.00000000          1
H        11.39849547       0.07207147       5.08966750         0.00000000       0.00000000       0.00000000          1
H        11.53364446       2.82810749       5.52587022         0.00000000       0.00000000       0.00000000          1
6
pbc=[F, F, F] list_num_par=6 energy=-1.26974174 iter=20000 frozen=false Lattice="15.00000000 0.00000000 0.00000000 0.00000000 15.00000000 0.00000000 0.00000000 0.00000000 15.00000000" energy_frozen_part=0.00000000 Properties=species:S:1:pos:R:3:velocities:R:3:Z:I:1
H         9.75342395       1.75844561       3.60608128         0.00000000       0.00000000       0.00000000          1
H        13.64188581       1.53423592       4.26801149         0.00000000       0.00000000       0.00000000          1
H        11.98294214       3.23599394       2.79961004         0.00000000       0.00000000       0.00000000          1
H        11.89943648       0.47903774       2.35628301         0.00000000       0.00000000       0.00000000          1
H        11.41236682       0.05669313       5.07448488         0.00000000       0.00000000       0.00000000          1
H        11.49586554       2.81364214       5.51782133         0.00000000       0.00000000       0.00000000          1
6
pbc=[F, F, F] list_num_par=6 energy=-1.26974174 iter=20000 frozen=false Lattice="15.00000000 0.00000000 0.00000000 0.00000000 15.00000000 0.00000000 0.00000000 0.00000000 15.00000000" energy_frozen_part=0.00000000 Properties=species:S:1:pos:R:3:velocities:R:3:Z:I:1
H        12.00380182       3.87036688       5.09128581         0.00000000       0.00000000       0.00000000          1
H        13.50167876       6.22335558       4.93614522         0.00000000       0.00000000       0.00000000          1
H        12.63029473       4.96560014       2.59884364         0.00000000       0.00000000       0.00000000          1
H        10.00025418       5.04334172       3.53752224         0.00000000       0.00000000       0.00000000          1
H        10.87163750       6.30112186       5.87482420         0.00000000       0.00000000       0.00000000          1
H        11.49812630       7.39634505       3.38238467         0.00000000       0.00000000       0.00000000          1
6
pbc=[F, F, F] list_num_par=6 energy=-1.26974174 iter=20000 frozen=false Lattice="15.00000000 0.00000000 0.00000000 0.00000000 15.00000000 0.00000000 0.00000000 0.00000000 15.00000000" energy_frozen_part=0.00000000 Properties=species:S:1:pos:R:3:velocities:R:3:Z:I:1
H         9.76473275       1.80006653       3.62364269         0.00000000       0.00000000       0.00000000          1
H        13.65112998       1.50709657       4.27071516         0.00000000       0.00000000       0.00000000          1
H        12.01737447       3.23509016       2.80471823         0.00000000       0.00000000       0.00000000          1
H        11.88223543       0.47904827       2.36850451         0.00000000       0.00000000       0.00000000          1
H        11.39849920       0.07207451       5.08964935         0.00000000       0.00000000       0.00000000          1
H        11.53362383       2.82811402       5.52586316         0.00000000       0.00000000       0.00000000          1
6
pbc=[F, F, F] list_num_par=6 energy=-1.26974174 iter=20000 frozen=false Lattice="15.00000000 0.00000000 0.00000000 0.00000000 15.00000000 0.00000000 0.00000000 0.00000000 15.00000000" energy_frozen_part=0.00000000 Properties=species:S:1:pos:R:3:velocities:R:3:Z:I:1
H         9.75340015       1.75846551       3.60606779         0.00000000       0.00000000       0.00000000          1
H        13.64186605       1.53424728       4.26800383         0.00000000       0.00000000       0.00000000          1
H        11.98292802       3.23601084       2.79960748         0.00000000       0.00000000       0.00000000          1
H        11.89941776       0.47906456       2.35625970         0.00000000       0.00000000       0.00000000          1
H        11.41233960       0.05669228       5.07446051         0.00000000       0.00000000       0.00000000          1
H        11.49584726       2.81363346       5.51781840         0.00000000       0.00000000       0.00000000          1
6
pbc=[F, F, F] list_num_par=6 energy=-1.26974174 iter=20000 frozen=false Lattice="15.00000000 0.00000000 0.00000000 0.00000000 15.00000000 0.00000000 0.00000000 0.00000000 15.00000000" energy_frozen_part=0.00000000 Properties=species:S:1:pos:R:3:velocities:R:3:Z:I:1
H        12.00394150       3.87039117       5.09116091         0.00000000       0.00000000       0.00000000          1
H        13.50170944       6.22345337       4.93607338         0.00000000       0.00000000       0.00000000          1
H        12.63024235       4.96578494       2.59874383         0.00000000       0.00000000       0.00000000          1
H        10.00025159       5.04338555       3.53758571         0.00000000       0.00000000       0.00000000          1
H        10.87171943       6.30105303       5.87491197         0.00000000       0.00000000       0.00000000          1
H        11.49801672       7.39643884       3.38249263         0.00000000       0.00000000       0.00000000          1
6
pbc=[F, F, F] list_num_par=6 energy=-1.26974174 iter=20000 frozen=false Lattice="15.00000000 0.00000000 0.00000000 0.00000000 15.00000000 0.00000000 0.00000000 0.00000000 15.00000000" energy_frozen_part=0.00000000 Properties=species:S:1:pos:R:3:velocities:R:3:Z:I:1
H         9.76480592       1.80007479       3.62357599         0.00000000       0.00000000       0.00000000          1
H        13.65117124       1.50694981       4.27074100         0.00000000       0.00000000       0.00000000          1
H        12.01752785       3.23491665       2.80458124         0.00000000       0.00000000       0.00000000          1
H        11.88227014       0.47885987       2.36855797         0.00000000       0.00000000       0.00000000          1
H        11.39845711       0.07209840       5.08972466         0.00000000       0.00000000       0.00000000          1
H        11.53371818       2.82815723       5.52575048         0.00000000       0.00000000       0.00000000          1
6
pbc=[F, F, F] list_num_par=6 energy=-1.26974174 iter=20000 frozen=false Lattice="15.00000000 0.00000000 0.00000000 0.00000000 15.00000000 0.00000000 0.00000000 0.00000000 15.00000000" energy_frozen_part=0.00000000 Properties=species:S:1:pos:R:3:velocities:R:3:Z:I:1
H        12.00375913       3.87038803       5.09122738         0.00000000       0.00000000       0.00000000          1
H        13.50161933       6.22340977       4.93620648         0.00000000       0.00000000       0.00000000          1
H        12.63020902       4.96577628       2.59883877         0.00000000       0.00000000       0.00000000          1
H        10.00018410       5.04345550       3.53755343         0.00000000       0.00000000       0.00000000          1
H        10.87158692       6.30109163       5.87492045         0.00000000       0.00000000       0.00000000          1
H        11.49804597       7.39647159       3.38253822         0.00000000       0.00000000       0.00000000          1
6
pbc=[F, F, F] list_num_par=6 energy=-1.26974174 iter=20000 frozen=false Lattice="15.00000000 0.00000000 0.00000000 0.00000000 15.00000000 0.00000000 0.00000000 0.00000000 15.00000000" energy_frozen_part=0.00000000 Properties=species:S:1:pos:R:3:velocities:R:3:Z:I:1
H        12.00385611       3.87043444       5.09121123         0.00000000       0.00000000       0.00000000          1
H        13.50163145       6.22349511       4.93619326         0.00000000       0.00000000       0.00000000          1
H        12.63026306       4.96583818       2.59882446         0.00000000       0.00000000       0.00000000          1
H        10.00022816       5.04342718       3.53755036         0.00000000       0.00000000       0.00000000          1
H        10.87160779       6.30109656       5.87491626         0.00000000       0.00000000       0.00000000          1
H        11.49801525       7.39649285       3.38252411         0.00000000       0.00000000       0.00000000          1
6
pbc=[F, F, F] list_num_par=6 energy=-1.26974174 iter=20000 frozen=false Lattice="15.00000000 0.00000000 0.00000000 0.00000000 15.00000000 0.00000000 0.00000000 0.00000000 15.00000000" energy_frozen_part=0.00000000 Properties=species:S:1:pos:R:3:velocities:R:3:Z:I:1
H         9.76482553       1.80008815       3.62354173         0.00000000       0.00000000       0.00000000          1
H        13.65118339       1.50694361       4.27072190         0.00000000       0.00000000       0.00000000          1
H        12.01755637       3.23491773       2.80455478         0.00000000       0.00000000       0.00000000          1
H        11.88227480       0.47885082       2.36854760         0.00000000       0.00000000       0.00000000          1
H        11.39845351       0.07211745       5.08971882         0.00000000       0.00000000       0.00000000          1
H        11.53372016       2.82818054       5.52572554         0.00000000       0.00000000       0.00000000          1
6
pbc=[F, F, F] list_num_par=6 energy=-1.26974174 iter=20000 frozen=false Lattice="15.00000000 0.00000000 0.00000000 0.00000000 15.00000000 0.00000000 0.00000000 0.00000000 15.00000000" energy_frozen_part=0.00000000 Properties=species:S:1:pos:R:3:velocities:R:3:Z:I:1
H         9.76471487       1.80003537       3.62370178         0.00000000       0.00000000       0.00000000          1
H        13.65113051       1.50712180       4.27071584         0.00000000       0.00000000       0.00000000          1
H        12.01732672       3.23507083       2.80472444         0.00000000       0.00000000       0.00000000          1
H        11.88222083       0.47902854       2.36854438         0.00000000       0.00000000       0.00000000          1
H        11.39852431       0.07208153       5.08970049         0.00000000       0.00000000       0.00000000          1
H        11.53362781       2.82812422       5.52587676         0.00000000       0.00000000       0.00000000          1
6
pbc=[F, F, F] list_num_par=6 energy=-1.26974174 iter=20000 frozen=false Lattice="15.00000000 0.00000000 0.00000000 0.00000000 15.00000000 0.00000000 0.00000000 0.00000000 15.00000000" energy_frozen_part=0.00000000 Properties=species:S:1:pos:R:3:velocities:R:3:Z:I:1
H        12.00390039       3.87035250       5.09116917         0.00000000       0.00000000       0.00000000          1
H        13.50170300       6.22340456       4.93610905         0.00000000       0.00000000       0.00000000          1
H        12.63023792       4.96575200       2.59877214         0.00000000       0.00000000       0.00000000          1
H        10.00023503       5.04338203       3.53757102         0.00000000       0.00000000       0.00000000          1
H        10.87170114       6.30102174       5.87491936         0.00000000       0.00000000       0.00000000          1
H        11.49804282       7.39642352       3.38251498         0.00000000       0.00000000       0.00000000          1
6
pbc=[F, F, F] list_num_par=6 energy=-1.26974174 iter=20000 frozen=false Lattice="15.00000000 0.00000000 0.00000000 0.00000000 15.00000000 0.00000000 0.00000000 0.00000000 15.00000000" energy_frozen_part=0.00000000 Properties=species:S:1:pos:R:3:velocities:R:3:Z:I:1
H        12.00393335       3.87039361       5.09119654         0.00000000       0.00000000       0.00000000          1
H        13.50171503       6.22345160       4.93606934         0.00000000       0.00000000       0.00000000          1
H        12.63023644       4.96575398       2.59876577         0.00000000       0.00000000       0.00000000          1
H        10.00024741       5.04336570       3.53759674         0.00000000       0.00000000       0.00000000          1
H        10.87173076       6.30106850       5.87490795         0.00000000       0.00000000       0.00000000          1
H        11.49802487       7.39642988       3.38248444         0.00000000       0.00000000       0.00000000          1
6
pbc=[F, F, F] list_num_par=6 energy=-1.26974174 iter=20000 frozen=false Lattice="15.00000000 0.00000000 0.00000000 0.00000000 15.00000000 0.00000000 0.00000000 0.00000000 15.00000000" energy_frozen_part=0.00000000 Properties=species:S:1:pos:R:3:velocities:R:3:Z:I:1
H        12.00379182       3.87042139       5.09121873         0.00000000       0.00000000       0.00000000          1
H        13.50165443       6.22342801       4.93621928         0.00000000       0.00000000       0.00000000          1
H        12.63025341       4.96581872       2.59883953         0.00000000       0.00000000       0.00000000          1
H        10.00021877       5.04350794       3.53755843         0.00000000       0.00000000       0.00000000          1
H        10.87162204       6.30111972       5.87493315         0.00000000       0.00000000       0.00000000          1
H        11.49809524       7.39651826       3.38255684         0.00000000       0.00000000       0.00000000          1
6
pbc=[F, F, F] list_num_par=6 energy=-1.26974174 iter=20000 frozen=false Lattice="15.00000000 0.00000000 0.00000000 0.00000000 15.00000000 0.00000000 0.00000000 0.00000000 15.00000000" energy_frozen_part=0.00000000 Properties=species:S:1:pos:R:3:velocities:R:3:Z:I:1
H         9.76486544       1.79999651       3.62357967         0.00000000       0.00000000       0.00000000          1
H        13.65123452       1.50707097       4.27082439         0.00000000       0.00000000       0.00000000          1
H        12.01753863       3.23497780       2.80466137         0.00000000       0.00000000       0.00000000          1
H        11.88241847       0.47891320       2.36859267         0.00000000       0.00000000       0.00000000          1
H        11.39857226       0.07208997       5.08974507         0.00000000       0.00000000       0.00000000          1
H        11.53368658       2.82815211       5.52580925         0.00000000       0.00000000       0.00000000          1
6
pbc=[F, F, F] list_num_par=6 energy=-1.26974174 iter=20000 frozen=false Lattice="15.00000000 0.00000000 0.00000000 0.00000000 15.00000000 0.00000000 0.00000000 0.00000000 15.00000000" energy_frozen_part=0.00000000 Properties=species:S:1:pos:R:3:velocities:R:3:Z:I:1
H        12.00377183       3.87039341       5.09120454         0.00000000       0.00000000       0.00000000          1
H        13.50163144       6.22340532       4.93617783         0.00000000       0.00000000       0.00000000          1
H        12.63019855       4.96578622       2.59881859         0.00000000       0.00000000       0.00000000          1
H        10.00017417       5.04346744       3.53757296         0.00000000       0.00000000       0.00000000          1
H        10.87161113       6.30109618       5.87492973         0.00000000       0.00000000       0.00000000          1
H        11.49803619       7.39647565       3.38253482         0.00000000       0.00000000       0.00000000          1
6
pbc=[F, F, F] list_num_par=6 energy=-1.26974174 iter=20000 frozen=false Lattice="15.00000000 0.00000000 0.00000000 0.00000000 15.00000000 0.00000000 0.00000000 0.00000000 15.00000000" energy_frozen_part=0.00000000 Properties=species:S:1:pos:R:3:velocities:R:3:Z:I:1
H         9.76471206       1.80004963       3.62372401         0.00000000       0.00000000       0.00000000          1
H        13.65112756       1.50711046       4.27069095         0.00000000       0.00000000       0.00000000          1
H        12.01731516       3.23507609       2.80471528         0.00000000       0.00000000       0.00000000          1
H        11.88218804       0.47902992       2.36853962         0.00000000       0.00000000       0.00000000          1
H        11.39851978       0.07207822       5.08970212         0.00000000       0.00000000       0.00000000          1
H        11.53365409       2.82811518       5.52587963         0.00000000       0.00000000       0.00000000          1
6
pbc=[F, F, F] list_num_par=6 energy=-1.26974174 iter=20000 frozen=false Lattice="15.00000000 0.00000000 0.00000000 0.00000000 15.00000000 0.00000000 0.00000000 0.00000000 15.00000000" energy_frozen_part=0.00000000 Properties=species:S:1:pos:R:3:velocities:R:3:Z:I:1
H        12.00379428       3.87037505       5.09124164         0.00000000       0.00000000       0.00000000          1
H        13.50168521       6.22335489       4.93612145         0.00000000       0.00000000       0.00000000          1