6
pbc=[F, F, F] list_num_par=6 frozen=false iter=9 energy=93.02270550 Lattice="15.00000000 0.00000000 0.00000000 0.00000000 15.00000000 0.00000000 0.00000000 0.00000000 15.00000000" energy_frozen_part=0.00000000 Properties=species:S:1:pos:R:3:velocities:R:3:Z:I:1
H        11.75994881       3.51187409       8.53190903         0.00000000       0.00000000       0.00000000          1
H        12.97039586      10.71243353       8.11980516         0.00000000       0.00000000       0.00000000          1
H         2.79500397       8.66134618       9.80972396         0.00000000       0.00000000       0.00000000          1
H        10.42120705       7.25955087      13.60984995         0.00000000       0.00000000       0.00000000          1
H        13.01331518      10.47113652       6.56004177         0.00000000       0.00000000       0.00000000          1
H         2.94424173       1.94104642      11.54023158         0.00000000       0.00000000       0.00000000          1
6
pbc=[F, F, F] list_num_par=6 frozen=false iter=19 energy=2.64122962 Lattice="15.00000000 0.00000000 0.00000000 0.00000000 15.00000000 0.00000000 0.00000000 0.00000000 15.00000000" energy_frozen_part=0.00000000 Properties=species:S:1:pos:R:3:velocities:R:3:Z:I:1
H         7.45804974      12.69675650       5.19024900         0.00000000       0.00000000       0.00000000          1
H         6.04989582      13.01143066       3.70926090         0.00000000       0.00000000       0.00000000          1
H         7.53290168       0.25077455       7.07978341         0.00000000       0.00000000       0.00000000          1
H         3.71323224      12.57552429       8.57983534         0.00000000       0.00000000       0.00000000          1
H        14.71220860       4.15544397       9.78510643         0.00000000       0.00000000       0.00000000          1
H         2.43174734       1.06358932       8.34289867         0.00000000       0.00000000       0.00000000          1
6
pbc=[F, F, F] list_num_par=6 frozen=false iter=29 energy=0.01919217 Lattice="15.00000000 0.00000000 0.00000000 0.00000000 15.00000000 0.00000000 0.00000000 0.00000000 15.00000000" energy_frozen_part=0.00000000 Properties=species:S:1:pos:R:3:velocities:R:3:Z:I:1
H         0.56567547       0.89876052      12.05534848         0.00000000       0.00000000       0.00000000          1
H        12.55403202       7.35596104       1.37644738         0.00000000       0.00000000       0.00000000          1
H         7.53124679       1.62197279      14.95533219         0.00000000       0.00000000       0.00000000          1
H        13.56658373      13.88487241       6.12897501         0.00000000       0.00000000       0.00000000          1
H        11.95626757       6.28117309       3.51854858         0.00000000       0.00000000       0.00000000          1
H         7.83995204       4.80357031       4.70891445         0.00000000       0.00000000       0.00000000          1
6
pbc=[F, F, F] list_num_par=6 frozen=false iter=39 energy=-0.00418940 Lattice="15.00000000 0.00000000 0.00000000 0.00000000 15.00000000 0.00000000 0.00000000 0.00000000 15.00000000" energy_frozen_part=0.00000000 Properties=species:S:1:pos:R:3:velocities:R:3:Z:I:1
H        13.95955315       0.34048680      14.95734793         0.00000000       0.00000000       0.00000000          1
H         0.63184995       9.76982753       4.04550124         0.00000000       0.00000000       0.00000000          1
H        12.40260033      11.13893054       5.60438190         0.00000000       0.00000000       0.00000000          1
H         2.02828497       3.92376563       9.03867588         0.00000000       0.00000000       0.00000000          1
H        14.86347487       9.31089069      10.34598822         0.00000000       0.00000000       0.00000000          1
H        10.46880760       4.11977590       6.44533472         0.00000000       0.00000000       0.00000000          1
6
pbc=[F, F, F] list_num_par=6 frozen=false iter=49 energy=-0.00650887 Lattice="15.00000000 0.00000000 0.00000000 0.00000000 15.00000000 0.00000000 0.00000000 0.00000000 15.00000000" energy_frozen_part=0.00000000 Properties=species:S:1:pos:R:3:velocities:R:3:Z:I:1
H         2.16861418      14.19849365       5.83054858         0.00000000       0.00000000       0.00000000          1
H        12.60519495      13.15565114       1.29555797         0.00000000       0.00000000       0.00000000          1
H         1.78734173       3.70036174       7.22644401         0.00000000       0.00000000       0.00000000          1
H         7.84037261      12.35673566       8.82832170         0.00000000       0.00000000       0.00000000          1
H         3.30962513       7.19484445      11.80631282         0.00000000       0.00000000       0.00000000          1
H        14.58005381      14.75442424       6.53902757         0.00000000       0.00000000       0.00000000          1
6
pbc=[F, F, F] list_num_par=6 frozen=false iter=59 energy=-0.01145681 Lattice="15.00000000 0.00000000 0.00000000 0.00000000 15.00000000 0.00000000 0.00000000 0.00000000 15.00000000" energy_frozen_part=0.00000000 Properties=species:S:1:pos:R:3:velocities:R:3:Z:I:1
H         5.75639725       8.96821110      13.44065649         0.00000000       0.00000000       0.00000000          1
H         0.43863963       9.75362015      11.16426069         0.00000000       0.00000000       0.00000000          1
H         0.98367493       3.55133541       3.59157203         0.00000000       0.00000000       0.00000000          1
H        14.11572119       9.69404810      12.54431785         0.00000000       0.00000000       0.00000000          1
H        13.36642463       9.00748763       1.38331080         0.00000000       0.00000000       0.00000000          1
H        14.60764881       5.42347182      14.41490402         0.00000000       0.00000000       0.00000000          1
6
pbc=[F, F, F] list_num_par=6 frozen=false iter=69 energy=-0.01488227 Lattice="15.00000000 0.00000000 0.00000000 0.00000000 15.00000000 0.00000000 0.00000000 0.00000000 15.00000000" energy_frozen_part=0.00000000 Properties=species:S:1:pos:R:3:velocities:R:3:Z:I:1
H         9.62362016       7.59132252       0.47169654         0.00000000       0.00000000       0.00000000          1
H         9.99428749       2.97069616       1.07017977         0.00000000       0.00000000       0.00000000          1
H         6.25493590       0.36791784       4.53225333         0.00000000       0.00000000       0.00000000          1
H         4.96376977      13.24558863       2.61038689         0.00000000       0.00000000       0.00000000          1
H        10.02427736      13.21550375       8.89405125         0.00000000       0.00000000       0.00000000          1
H         7.02100007       6.90689707       7.18576783         0.00000000       0.00000000       0.00000000          1
6
pbc=[F, F, F] list_num_par=6 frozen=false iter=79 energy=-0.01940864 Lattice="15.00000000 0.00000000 0.00000000 0.00000000 15.00000000 0.00000000 0.00000000 0.00000000 15.00000000" energy_frozen_part=0.00000000 Properties=species:S:1:pos:R:3:velocities:R:3:Z:I:1
H        11.27836844       3.02397054      12.05541831         0.00000000       0.00000000       0.00000000          1
H        14.18664194      12.65041128       2.89900941         0.00000000       0.00000000       0.00000000          1
H         4.95419929      12.12949261       8.70523055         0.00000000       0.00000000       0.00000000          1
H         9.58335399       1.66176646       5.20070018         0.00000000       0.00000000       0.00000000          1
H        11.10835178      14.32727372       5.12847288         0.00000000       0.00000000       0.00000000          1
H         3.42838089       7.86500635       2.10921128         0.00000000       0.00000000       0.00000000          1
6
pbc=[F, F, F] list_num_par=6 frozen=false iter=89 energy=-0.02662070 Lattice="15.00000000 0.00000000 0.00000000 0.00000000 15.00000000 0.00000000 0.00000000 0.00000000 15.00000000" energy_frozen_part=0.00000000 Properties=species:S:1:pos:R:3:velocities:R:3:Z:I:1
H        12.00736994       7.86889010       1.74232779         0.00000000       0.00000000       0.00000000          1
H         5.88461940      14.13660160      10.76005916         0.00000000       0.00000000       0.00000000          1
H         7.77779419       5.26760289       2.84921782         0.00000000       0.00000000       0.00000000          1
H         6.36388449      11.18847483       7.71748700         0.00000000       0.00000000       0.00000000          1
H         7.26360412      14.19507386       3.24778933         0.00000000       0.00000000       0.00000000          1
H         3.88455438       6.35899577      12.21307762         0.00000000       0.00000000       0.00000000          1
6
pbc=[F, F, F] list_num_par=6 frozen=false iter=99 energy=-0.02967324 Lattice="15.00000000 0.00000000 0.00000000 0.00000000 15.00000000 0.00000000 0.00000000 0.00000000 15.00000000" energy_frozen_part=0.00000000 Properties=species:S:1:pos:R:3:velocities:R:3:Z:I:1
H         3.98621634      13.35507455      12.66731114         0.00000000       0.00000000       0.00000000          1
H         9.47075818       0.55915021      10.38026170         0.00000000       0.00000000       0.00000000          1
H         7.60004065       5.09024558      12.73071831         0.00000000       0.00000000       0.00000000          1
H        11.98142986      11.03302434      10.43040246         0.00000000       0.00000000       0.00000000          1
H        14.66912033      11.62834323      13.20504056         0.00000000       0.00000000       0.00000000          1
H         0.67910762       5.80057633       4.60676766         0.00000000       0.00000000       0.00000000          1
6
pbc=[F, F, F] list_num_par=6 frozen=false iter=109 energy=-0.03233804 Lattice="15.00000000 0.00000000 0.00000000 0.00000000 15.00000000 0.00000000 0.00000000 0.00000000 15.00000000" energy_frozen_part=0.00000000 Properties=species:S:1:pos:R:3:velocities:R:3:Z:I:1
H        13.67470390      14.10985120       5.08150996         0.00000000       0.00000000       0.00000000          1
H         0.54584714      12.92624777       5.26157245         0.00000000       0.00000000       0.00000000          1
H         5.57549273       3.25965241       5.40106596         0.00000000       0.00000000       0.00000000          1
H         8.37261643      12.33272504       9.69850738         0.00000000       0.00000000       0.00000000          1
H         2.87876746      13.87866657      14.30383168         0.00000000       0.00000000       0.00000000          1
H         3.42379449      10.25175752      13.31729200         0.00000000       0.00000000       0.00000000          1
6
pbc=[F, F, F] list_num_par=6 frozen=false iter=119 energy=-0.03830189 Lattice="15.00000000 0.00000000 0.00000000 0.00000000 15.00000000 0.00000000 0.00000000 0.00000000 15.00000000" energy_frozen_part=0.00000000 Properties=species:S:1:pos:R:3:velocities:R:3:Z:I:1
H        11.63220892      13.87478130       9.94813843         0.00000000       0.00000000       0.00000000          1
H         2.33320080       4.15758009       0.77694056         0.00000000       0.00000000       0.00000000          1
H         3.20226291       5.10193243       9.72943173         0.00000000       0.00000000       0.00000000          1
H         2.02455007       8.03021528       7.68803751         0.00000000       0.00000000       0.00000000          1
H         2.52251041       0.18928358      10.27793441         0.00000000       0.00000000       0.00000000          1
H        13.26634809       7.60104843       3.39214229         0.00000000       0.00000000       0.00000000          1
6
pbc=[F, F, F] list_num_par=6 frozen=false iter=129 energy=-0.04564474 Lattice="15.00000000 0.00000000 0.00000000 0.00000000 15.00000000 0.00000000 0.00000000 0.00000000 15.00000000" energy_frozen_part=0.00000000 Properties=species:S:1:pos:R:3:velocities:R:3:Z:I:1
H         7.27039731       2.80610745       8.27929700         0.00000000       0.00000000       0.00000000          1
H        12.29639533       1.46149189       8.88003162         0.00000000       0.00000000       0.00000000          1
H        10.83610109       4.43850845      13.59185963         0.00000000       0.00000000       0.00000000          1
H         4.30301215       5.70782093       1.33996483         0.00000000       0.00000000       0.00000000          1
H        13.84793334       6.58124703       5.14743306         0.00000000       0.00000000       0.00000000          1
H         6.93143240       2.62428274      12.22798200         0.00000000       0.00000000       0.00000000          1
6
pbc=[F, F, F] list_num_par=6 frozen=false iter=139 energy=-0.05108761 Lattice="15.00000000 0.00000000 0.00000000 0.00000000 15.00000000 0.00000000 0.00000000 0.00000000 15.00000000" energy_frozen_part=0.00000000 Properties=species:S:1:pos:R:3:velocities:R:3:Z:I:1
H        12.53702373       6.55956270       2.28245660         0.00000000       0.00000000       0.00000000          1
H         7.64170711      10.90136410       5.71552958         0.00000000       0.00000000       0.00000000          1
H         9.66004802       4.71488010       0.72564450         0.00000000       0.00000000       0.00000000          1
H         2.33213307      13.46570710      13.25037623         0.00000000       0.00000000       0.00000000          1
H         5.37408408      12.05161245      10.24014077         0.00000000       0.00000000       0.00000000          1
H         1.48232874       7.62193882      14.31995585         0.00000000       0.00000000       0.00000000          1
6
pbc=[F, F, F] list_num_par=6 frozen=false iter=149 energy=-0.05697190 Lattice="15.00000000 0.00000000 0.00000000 0.00000000 15.00000000 0.00000000 0.00000000 0.00000000 15.00000000" energy_frozen_part=0.00000000 Properties=species:S:1:pos:R:3:velocities:R:3:Z:I:1
H         4.86565892       0.57475284       8.90758592         0.00000000       0.00000000       0.00000000          1
H        11.62620145       4.70281432      14.14805048         0.00000000       0.00000000       0.00000000          1
H         6.52008970       0.27728501      13.07235080         0.00000000       0.00000000       0.00000000          1
H         0.54945609       7.42905302       0.84177642         0.00000000       0.00000000       0.00000000          1
H         5.95395898      11.15368276       6.71114691         0.00000000       0.00000000       0.00000000          1
H         2.17989617       1.63765103       6.87796900         0.00000000       0.00000000       0.00000000          1
6
pbc=[F, F, F] list_num_par=6 frozen=false iter=159 energy=-0.06507264 Lattice="15.00000000 0.00000000 0.00000000 0.00000000 15.00000000 0.00000000 0.00000000 0.00000000 15.00000000" energy_frozen_part=0.00000000 Properties=species:S:1:pos:R:3:velocities:R:3:Z:I:1
H         2.19952755       0.88307786      11.59918435         0.00000000       0.00000000       0.00000000          1
H        14.73105466       7.40751854      14.04766609         0.00000000       0.00000000       0.00000000          1
H        10.33138588       3.29488965       0.32240458         0.00000000       0.00000000       0.00000000          1
H        13.04165871       3.53068962       6.95241766         0.00000000       0.00000000       0.00000000          1
H         2.08677064       5.26077233      10.84588009         0.00000000       0.00000000       0.00000000          1
H        13.48666750       1.88689022       5.03229280         0.00000000       0.00000000       0.00000000          1
6
pbc=[F, F, F] list_num_par=6 frozen=false iter=169 energy=-0.07056228 Lattice="15.00000000 0.00000000 0.00000000 0.00000000 15.00000000 0.00000000 0.00000000 0.00000000 15.00000000" energy_frozen_part=0.00000000 Properties=species:S:1:pos:R:3:velocities:R:3:Z:I:1
H         1.52446605      13.19618454      14.10370184         0.00000000       0.00000000       0.00000000          1
H         1.31033030       6.63664251      12.15790967         0.00000000       0.00000000       0.00000000          1
H        13.16855799       4.84912965      13.65051910         0.00000000       0.00000000       0.00000000          1
H         3.86502216      12.42178533      13.29462156         0.00000000       0.00000000       0.00000000          1
H         7.97392616       6.34168903      14.94077015         0.00000000       0.00000000       0.00000000          1
H         5.93775071       8.74606068       5.45017634         0.00000000       0.00000000       0.00000000          1
6
pbc=[F, F, F] list_num_par=6 frozen=false iter=179 energy=-0.07835375 Lattice="15.00000000 0.00000000 0.00000000 0.00000000 15.00000000 0.00000000 0.00000000 0.00000000 15.00000000" energy_frozen_part=0.00000000 Properties=species:S:1:pos:R:3:velocities:R:3:Z:I:1
H         3.00787612       6.50281902       4.30212776         0.00000000       0.00000000       0.00000000          1
H         3.18707278      10.49577606      12.17361648         0.00000000       0.00000000       0.00000000          1
H         3.73340442       6.88856380       8.56066618         0.00000000       0.00000000       0.00000000          1
H        11.26865912       3.24905078       4.60379655         0.00000000       0.00000000       0.00000000          1
H        10.68726619       1.65715783      11.49899017         0.00000000       0.00000000       0.00000000          1
H         6.94783311       7.88436677       8.02760463         0.00000000       0.00000000       0.00000000          1
6
pbc=[F, F, F] list_num_par=6 frozen=false iter=189 energy=-0.08142881 Lattice="15.00000000 0.00000000 0.00000000 0.00000000 15.00000000 0.00000000 0.00000000 0.00000000 15.00000000" energy_frozen_part=0.00000000 Properties=species:S:1:pos:R:3:velocities:R:3:Z:I:1
H         8.56173231      14.17995079      13.56669693         0.00000000       0.00000000       0.00000000          1
H         2.52692298      12.57495493      13.96030973         0.00000000       0.00000000       0.00000000          1
H        12.00921524       3.55933306       1.14410496         0.00000000       0.00000000       0.00000000          1
H        12.26508461       5.99822317      10.00562620         0.00000000       0.00000000       0.00000000          1
H        12.41394801      14.09488082       4.79241949         0.00000000       0.00000000       0.00000000          1
H        13.03001748       3.79325387       4.07578296         0.00000000       0.00000000       0.00000000          1
6
pbc=[F, F, F] list_num_par=6 frozen=false iter=199 energy=-0.08487913 Lattice="15.00000000 0.00000000 0.00000000 0.00000000 15.00000000 0.00000000 0.00000000 0.00000000 15.00000000" energy_frozen_part=0.00000000 Properties=species:S:1:pos:R:3:velocities:R:3:Z:I:1
H         7.93204116       6.71220630       0.17589011         0.00000000       0.00000000       0.00000000          1
H         0.85148980       7.92279998       7.82573815         0.00000000       0.00000000       0.00000000          1
H         5.45652797      10.87876802      14.50079163         0.00000000       0.00000000       0.00000000          1
H        12.06978733      13.42518821       6.64455660         0.00000000       0.00000000       0.00000000          1
H         6.08171470       6.26972344       8.05269745         0.00000000       0.00000000       0.00000000          1
H         9.71028080       4.76446922       0.03774906         0.00000000       0.00000000       0.00000000          1
6
pbc=[F, F, F] list_num_par=6 frozen=false iter=209 energy=-0.08721848 Lattice="15.00000000 0.00000000 0.00000000 0.00000000 15.00000000 0.00000000 0.00000000 0.00000000 15.00000000" energy_frozen_part=0.00000000 Properties=species:S:1:pos:R:3:velocities:R:3:Z:I:1
H         8.68761923      11.61048980       3.87417879         0.00000000       0.00000000       0.00000000          1
H         9.14910894      11.47011069       6.47671202         0.00000000       0.00000000       0.00000000          1
H         0.08734964      14.72934524      13.33457593         0.00000000       0.00000000       0.00000000          1
H        13.06999929       1.60722721       2.48074737         0.00000000       0.00000000       0.00000000          1
H        13.32936225      11.05256155       9.94859001         0.00000000       0.00000000       0.00000000          1
H         6.61437243       7.14589026      11.60335679         0.00000000       0.00000000       0.00000000          1
6
pbc=[F, F, F] list_num_par=6 frozen=false iter=219 energy=-0.09175474 Lattice="15.00000000 0.00000000 0.00000000 0.00000000 15.00000000 0.00000000 0.00000000 0.00000000 15.00000000" energy_frozen_part=0.00000000 Properties=species:S:1:pos:R:3:velocities:R:3:Z:I:1
H         8.71374235       1.53305150      10.32396047         0.00000000       0.00000000       0.00000000          1
H         9.47968786       9.11837748      13.44115993         0.00000000       0.00000000       0.00000000          1
H        12.25415906       4.24717422       5.28229372         0.00000000       0.00000000       0.00000000          1
H         4.25363674       5.96887867       0.81302092         0.00000000       0.00000000       0.00000000          1
H         8.62510286       6.36000277      14.86563822         0.00000000       0.00000000       0.00000000          1
H        12.40974961       3.94900028      10.23228920         0.00000000       0.00000000       0.00000000          1
6
pbc=[F, F, F] list_num_par=6 frozen=false iter=229 energy=-0.09564908 Lattice="15.00000000 0.00000000 0.00000000 0.00000000 15.00000000 0.00000000 0.00000000 0.00000000 15.00000000" energy_frozen_part=0.00000000 Properties=species:S:1:pos:R:3:velocities:R:3:Z:I:1
H         5.69536487      14.96977935       1.55736650         0.00000000       0.00000000       0.00000000          1
H        13.22150332      12.27569169       3.66735905         0.00000000       0.00000000       0.00000000          1
H        13.15877280       9.61694398       3.13207611         0.00000000       0.00000000       0.00000000          1
H         2.69829394       2.61625392       7.54509811         0.00000000       0.00000000       0.00000000          1
H         6.76805009      12.66112758      14.75767738         0.00000000       0.00000000       0.00000000          1
H         5.85295772       4.75712897       1.12415252         0.00000000       0.00000000       0.00000000          1
6
pbc=[F, F, F] list_num_par=6 frozen=false iter=239 energy=-0.09919424 Lattice="15.00000000 0.00000000 0.00000000 0.00000000 15.00000000 0.00000000 0.00000000 0.00000000 15.00000000" energy_frozen_part=0.00000000 Properties=species:S:1:pos:R:3:velocities:R:3:Z:I:1
H         1.19794238      13.51803676       1.12164857         0.00000000       0.00000000       0.00000000          1
H        10.62129950       7.66080441      12.12424276         0.00000000       0.00000000       0.00000000          1
H         9.83167899       0.72129817       5.57171054         0.00000000       0.00000000       0.00000000          1
H        13.92487337       9.33900728       3.64370549         0.00000000       0.00000000       0.00000000          1
H         0.61489099       0.79326321       8.87825592         0.00000000       0.00000000       0.00000000          1
H         9.25606349       1.17180358       2.90522818         0.00000000       0.00000000       0.00000000          1
6
pbc=[F, F, F] list_num_par=6 frozen=false iter=249 energy=-0.10180869 Lattice="15.00000000 0.00000000 0.00000000 0.00000000 15.00000000 0.00000000 0.00000000 0.00000000 15.00000000" energy_frozen_part=0.00000000 Properties=species:S:1:pos:R:3:velocities:R:3:Z:I:1
H         9.71867576      11.60692598       7.06497824         0.00000000       0.00000000       0.00000000          1
H         2.08748470       7.57512745       6.25290867         0.00000000       0.00000000       0.00000000          1
H        11.00657837       9.81106409       4.92161942         0.00000000       0.00000000       0.00000000          1
H         7.10200168       7.21465977      13.96539370         0.00000000       0.00000000       0.00000000          1
H         2.42587948      12.93514844       0.11940843         0.00000000       0.00000000       0.00000000          1
H         1.79498582      11.69395639       6.65243247         0.00000000       0.00000000       0.00000000          1
6
pbc=[F, F, F] list_num_par=6 frozen=false iter=259 energy=-0.10414751 Lattice="15.00000000 0.00000000 0.00000000 0.00000000 15.00000000 0.00000000 0.00000000 0.00000000 15.00000000" energy_frozen_part=0.00000000 Properties=species:S:1:pos:R:3:velocities:R:3:Z:I:1
H         4.92046605       9.36737162       5.60344324         0.00000000       0.00000000       0.00000000          1
H        12.39560449      12.16536851       2.70016119         0.00000000       0.00000000       0.00000000          1
H         4.15971163      10.28628983      13.19240427         0.00000000       0.00000000       0.00000000          1
H         4.69638942       4.69107104       1.78075931         0.00000000       0.00000000       0.00000000          1
H         7.94126326      12.21770457       7.06058210         0.00000000       0.00000000       0.00000000          1
H        13.92324923      13.98402908       4.58973833         0.00000000       0.00000000       0.00000000          1
6
pbc=[F, F, F] list_num_par=6 frozen=false iter=269 energy=-0.10712933 Lattice="15.00000000 0.00000000 0.00000000 0.00000000 15.00000000 0.00000000 0.00000000 0.00000000 15.00000000" energy_frozen_part=0.00000000 Properties=species:S:1:pos:R:3:velocities:R:3:Z:I:1
H         2.70479047      14.79058504      12.28480533         0.00000000       0.00000000       0.00000000          1
H         8.10320463      12.30077506      10.76584859         0.00000000       0.00000000       0.00000000          1
H         4.11684059       7.85130764       5.31538784         0.00000000       0.00000000       0.00000000          1
H         2.46492153      14.03141364      14.97161473         0.00000000       0.00000000       0.00000000          1
H         3.95727615       6.83559406       0.14541271         0.00000000       0.00000000       0.00000000          1
H        13.07796728       9.34825991       4.81203713         0.00000000       0.00000000       0.00000000          1
6
pbc=[F, F, F] list_num_par=6 frozen=false iter=279 energy=-0.10957282 Lattice="15.00000000 0.00000000 0.00000000 0.00000000 15.00000000 0.00000000 0.00000000 0.00000000 15.00000000" energy_frozen_part=0.00000000 Properties=species:S:1:pos:R:3:velocities:R:3:Z:I:1
H         0.16747757      10.10645528      14.91395510         0.00000000       0.00000000       0.00000000          1
H         2.38855635      10.84939766      12.35795536         0.00000000       0.00000000       0.00000000          1
H        14.55610159       9.81666361       7.30989101         0.00000000       0.00000000       0.00000000          1
H         9.50036121       4.42127032       4.66244056         0.00000000       0.00000000       0.00000000          1
H         2.07015692       9.21405162       0.97649148         0.00000000       0.00000000       0.00000000          1
H         0.62522589      12.49966858      14.41037890         0.00000000       0.00000000       0.00000000          1
6
pbc=[F, F, F] list_num_par=6 frozen=false iter=289 energy=-0.11277510 Lattice="15.00000000 0.00000000 0.00000000 0.00000000 15.00000000 0.00000000 0.00000000 0.00000000 15.00000000" energy_frozen_part=0.00000000 Properties=species:S:1:pos:R:3:velocities:R:3:Z:I:1
H         7.54695905       3.49451556       6.10220764         0.00000000       0.00000000       0.00000000          1
H        11.41897117      11.31499087      12.10034652         0.00000000       0.00000000       0.00000000          1
H        12.97956058       1.43892502       8.61600517         0.00000000       0.00000000       0.00000000          1
H         8.07425163       4.13088884      12.34675004         0.00000000       0.00000000       0.00000000          1
H         5.36498280      10.64926891       5.38652596         0.00000000       0.00000000       0.00000000          1
H        10.43649544       3.84229963       5.84572473         0.00000000       0.00000000       0.00000000          1
6
pbc=[F, F, F] list_num_par=6 frozen=false iter=299 energy=-0.11654389 Lattice="15.00000000 0.00000000 0.00000000 0.00000000 15.00000000 0.00000000 0.00000000 0.00000000 15.00000000" energy_frozen_part=0.00000000 Properties=species:S:1:pos:R:3:velocities:R:3:Z:I:1
H         7.04812421       9.31694632       6.93923174         0.00000000       0.00000000       0.00000000          1
H         3.63083125       6.80627778       6.00359666         0.00000000       0.00000000       0.00000000          1
H        14.53747286       7.00256440       9.42242825         0.00000000       0.00000000       0.00000000          1
H         3.16603475      10.39069821      13.36014893         0.00000000       0.00000000       0.00000000          1
H         1.11895164      12.52633868       0.52275106         0.00000000       0.00000000       0.00000000          1
H         8.47931589      10.92297243       5.13906554         0.00000000       0.00000000       0.00000000          1
6
pbc=[F, F, F] list_num_par=6 frozen=false iter=309 energy=-0.11950892 Lattice="15.00000000 0.00000000 0.00000000 0.00000000 15.00000000 0.00000000 0.00000000 0.00000000 15.00000000" energy_frozen_part=0.00000000 Properties=species:S:1:pos:R:3:velocities:R:3:Z:I:1
H         9.42100083       1.39250240      14.37067287         0.00000000       0.00000000       0.00000000          1
H         2.60657261       3.11775106      11.90902808         0.00000000       0.00000000       0.00000000          1