6
pbc=[F, F, F] list_num_par=6 energy=-1.26974174 iter=20000 frozen=false Lattice="15.00000000 0.00000000 0.00000000 0.00000000 15.00000000 0.00000000 0.00000000 0.00000000 15.00000000" energy_frozen_part=0.00000000 Properties=species:S:1:pos:R:3:velocities:R:3:Z:I:1
H         5.11218048       7.84289978       6.04643336         0.00000000       0.00000000       0.00000000          1
H         5.87773056       8.07872264       3.37012581         0.00000000       0.00000000       0.00000000          1
H         7.78332489       8.07485488       6.83094282         0.00000000       0.00000000       0.00000000          1
H         8.54888228       8.31066266       4.15464199         0.00000000       0.00000000       0.00000000          1
H         6.62657674      10.03827130       5.21503180         0.00000000       0.00000000       0.00000000          1
H         7.03447696       6.11529539       4.98604543         0.00000000       0.00000000       0.00000000          1
6
pbc=[F, F, F] list_num_par=6 energy=-1.26974174 iter=20000 frozen=false Lattice="15.00000000 0.00000000 0.00000000 0.00000000 15.00000000 0.00000000 0.00000000 0.00000000 15.00000000" energy_frozen_part=0.00000000 Properties=species:S:1:pos:R:3:velocities:R:3:Z:I:1
H         5.13090637       7.84453544       6.03526266         0.00000000       0.00000000       0.00000000          1
H         5.90339234       8.06611978       3.35972541         0.00000000       0.00000000       0.00000000          1
H         7.80130202       8.06806161       6.82476238         0.00000000       0.00000000       0.00000000          1
H         8.57378415       8.28964820       4.14922996         0.00000000       0.00000000       0.00000000          1
H         6.65669034      10.02989438       5.19831682         0.00000000       0.00000000       0.00000000          1
H         7.04800276       6.10428960       4.98617620         0.00000000       0.00000000       0.00000000          1
6
pbc=[F, F, F] list_num_par=6 energy=-1.26974174 iter=20000 frozen=false Lattice="15.00000000 0.00000000 0.00000000 0.00000000 15.00000000 0.00000000 0.00000000 0.00000000 15.00000000" energy_frozen_part=0.00000000 Properties=species:S:1:pos:R:3:velocities:R:3:Z:I:1
H        11.61150697       4.27871621       4.54634548         0.00000000       0.00000000       0.00000000          1
H        14.22322474       6.91153772       5.90862777         0.00000000       0.00000000       0.00000000          1
H        13.78597409       5.65100817       3.45420799         0.00000000       0.00000000       0.00000000          1
H        11.71636743       7.06689349       4.68557656         0.00000000       0.00000000       0.00000000          1
H        12.04875018       5.53924694       7.00076344         0.00000000       0.00000000       0.00000000          1
H        14.11835775       4.12336649       5.76940269         0.00000000       0.00000000       0.00000000          1
6
pbc=[F, F, F] list_num_par=6 energy=-1.26974174 iter=20000 frozen=false Lattice="15.00000000 0.00000000 0.00000000 0.00000000 15.00000000 0.00000000 0.00000000 0.00000000 15.00000000" energy_frozen_part=0.00000000 Properties=species:S:1:pos:R:3:velocities:R:3:Z:I:1
H         5.13072611       7.84378484       6.03528150         0.00000000       0.00000000       0.00000000          1
H         5.90276776       8.06529894       3.35962043         0.00000000       0.00000000       0.00000000          1
H         7.80122670       8.06762962       6.82436420         0.00000000       0.00000000       0.00000000          1
H         8.57325818       8.28913838       4.14869606         0.00000000       0.00000000       0.00000000          1
H         6.65615206      10.02925371       5.19798725         0.00000000       0.00000000       0.00000000          1
H         7.04783328       6.10367377       4.98601015         0.00000000       0.00000000       0.00000000          1
6
pbc=[F, F, F] list_num_par=6 energy=-1.26974174 iter=20000 frozen=false Lattice="15.00000000 0.00000000 0.00000000 0.00000000 15.00000000 0.00000000 0.00000000 0.00000000 15.00000000" energy_frozen_part=0.00000000 Properties=species:S:1:pos:R:3:velocities:R:3:Z:I:1
H         5.13091856       7.84452379       6.03525275         0.00000000       0.00000000       0.00000000          1
H         5.90339968       8.06612283       3.35971928         0.00000000       0.00000000       0.00000000          1
H         7.80130831       8.06807127       6.82476600         0.00000000       0.00000000       0.00000000          1
H         8.57378476       8.28967752       4.14924502         0.00000000       0.00000000       0.00000000          1
H         6.65667193      10.02990400       5.19831706         0.00000000       0.00000000       0.00000000          1
H         7.04802695       6.10429803       4.98616734         0.00000000       0.00000000       0.00000000          1
6
pbc=[F, F, F] list_num_par=6 energy=-1.26974174 iter=20000 frozen=false Lattice="15.00000000 0.00000000 0.00000000 0.00000000 15.00000000 0.00000000 0.00000000 0.00000000 15.00000000" energy_frozen_part=0.00000000 Properties=species:S:1:pos:R:3:velocities:R:3:Z:I:1
H         5.13071770       7.84379938       6.03527299         0.00000000       0.00000000       0.00000000          1
H         5.90275169       8.06530072       3.35961349         0.00000000       0.00000000       0.00000000          1
H         7.80121338       8.06763321       6.82435279         0.00000000       0.00000000       0.00000000          1
H         8.57324809       8.28915220       4.14868894         0.00000000       0.00000000       0.00000000          1
H         6.65614806      10.02926681       5.19797006         0.00000000       0.00000000       0.00000000          1
H         7.04781879       6.10367565       4.98599747         0.00000000       0.00000000       0.00000000          1
6
pbc=[F, F, F] list_num_par=6 energy=-1.26974174 iter=20000 frozen=false Lattice="15.00000000 0.00000000 0.00000000 0.00000000 15.00000000 0.00000000 0.00000000 0.00000000 15.00000000" energy_frozen_part=0.00000000 Properties=species:S:1:pos:R:3:velocities:R:3:Z:I:1
H         5.11217408       7.84288557       6.04643976         0.00000000       0.00000000       0.00000000          1
H         5.87772608       8.07870983       3.37013410         0.00000000       0.00000000       0.00000000          1
H         7.78331835       8.07483261       6.83094991         0.00000000       0.00000000       0.00000000          1
H         8.54887882       8.31065359       4.15464981         0.00000000       0.00000000       0.00000000          1
H         6.62658084      10.03825901       5.21503412         0.00000000       0.00000000       0.00000000          1
H         7.03447948       6.11528603       4.98604505         0.00000000       0.00000000       0.00000000          1
6
pbc=[F, F, F] list_num_par=6 energy=-1.26974174 iter=20000 frozen=false Lattice="15.00000000 0.00000000 0.00000000 0.00000000 15.00000000 0.00000000 0.00000000 0.00000000 15.00000000" energy_frozen_part=0.00000000 Properties=species:S:1:pos:R:3:velocities:R:3:Z:I:1
H         5.13029165       7.84377217       6.03506387         0.00000000       0.00000000       0.00000000          1
H         5.90251972       8.06496464       3.35943189         0.00000000       0.00000000       0.00000000          1
H         7.80075947       8.06736297       6.82429417         0.00000000       0.00000000       0.00000000          1
H         8.57298798       8.28857209       4.14865608         0.00000000       0.00000000       0.00000000          1
H         6.65602919      10.02899046       5.19767334         0.00000000       0.00000000       0.00000000          1
H         7.04725957       6.10334322       4.98604762         0.00000000       0.00000000       0.00000000          1
6
pbc=[F, F, F] list_num_par=6 energy=-1.26974174 iter=20000 frozen=false Lattice="15.00000000 0.00000000 0.00000000 0.00000000 15.00000000 0.00000000 0.00000000 0.00000000 15.00000000" energy_frozen_part=0.00000000 Properties=species:S:1:pos:R:3:velocities:R:3:Z:I:1
H        11.61150722       4.27865593       4.54642968         0.00000000       0.00000000       0.00000000          1
H        14.22306642       6.91159261       5.90877809         0.00000000       0.00000000       0.00000000          1
H        13.78585422       5.65116440       3.45430599         0.00000000       0.00000000       0.00000000          1
H        11.71617243       7.06683122       4.68580546         0.00000000       0.00000000       0.00000000          1
H        12.04873158       5.53908260       7.00091174         0.00000000       0.00000000       0.00000000          1
H        14.11840687       4.12342025       5.76940475         0.00000000       0.00000000       0.00000000          1
6
pbc=[F, F, F] list_num_par=6 energy=-1.26974174 iter=20000 frozen=false Lattice="15.00000000 0.00000000 0.00000000 0.00000000 15.00000000 0.00000000 0.00000000 0.00000000 15.00000000" energy_frozen_part=0.00000000 Properties=species:S:1:pos:R:3:velocities:R:3:Z:I:1
H        11.61151453       4.27870587       4.54632573         0.00000000       0.00000000       0.00000000          1
H        14.22318346       6.91153082       5.90865806         0.00000000       0.00000000       0.00000000          1
H        13.78598444       5.65103930       3.45421332         0.00000000       0.00000000       0.00000000          1
H        11.71634186       7.06687524       4.68559150         0.00000000       0.00000000       0.00000000          1
H        12.04873111       5.53919678       7.00076688         0.00000000       0.00000000       0.00000000          1
H        14.11836527       4.12335832       5.76937976         0.00000000       0.00000000       0.00000000          1
6
pbc=[F, F, F] list_num_par=6 energy=-1.26974174 iter=20000 frozen=false Lattice="15.00000000 0.00000000 0.00000000 0.00000000 15.00000000 0.00000000 0.00000000 0.00000000 15.00000000" energy_frozen_part=0.00000000 Properties=species:S:1:pos:R:3:velocities:R:3:Z:I:1
H         5.13093163       7.84449812       6.03530054         0.00000000       0.00000000       0.00000000          1
H         5.90337336       8.06603472       3.35975466         0.00000000       0.00000000       0.00000000          1
H         7.80132247       8.06809786       6.82476825         0.00000000       0.00000000       0.00000000          1
H         8.57377030       8.28963912       4.14922312         0.00000000       0.00000000       0.00000000          1
H         6.65665087      10.02987404       5.19828143         0.00000000       0.00000000       0.00000000          1
H         7.04804711       6.10425995       4.98622673         0.00000000       0.00000000       0.00000000          1
6
pbc=[F, F, F] list_num_par=6 energy=-1.26974174 iter=20000 frozen=false Lattice="15.00000000 0.00000000 0.00000000 0.00000000 15.00000000 0.00000000 0.00000000 0.00000000 15.00000000" energy_frozen_part=0.00000000 Properties=species:S:1:pos:R:3:velocities:R:3:Z:I:1
H         5.13053516       7.84412759       6.03550330         0.00000000       0.00000000       0.00000000          1
H         5.90251234       8.06517462       3.35978701         0.00000000       0.00000000       0.00000000          1
H         7.80106358       8.06795921       6.82446461         0.00000000       0.00000000       0.00000000          1
H         8.57303452       8.28899664       4.14875289         0.00000000       0.00000000       0.00000000          1
H         6.65605089      10.02938806       5.19780487         0.00000000       0.00000000       0.00000000          1
H         7.04751366       6.10373952       4.98644613         0.00000000       0.00000000       0.00000000          1
6
pbc=[F, F, F] list_num_par=6 energy=-1.26974174 iter=20000 frozen=false Lattice="15.00000000 0.00000000 0.00000000 0.00000000 15.00000000 0.00000000 0.00000000 0.00000000 15.00000000" energy_frozen_part=0.00000000 Properties=species:S:1:pos:R:3:velocities:R:3:Z:I:1
H         5.11187033       7.84323459       6.04533740         0.00000000       0.00000000       0.00000000          1
H         5.87744409       8.07706960       3.36886780         0.00000000       0.00000000       0.00000000          1
H         7.78277009       8.07808218       6.82983237         0.00000000       0.00000000       0.00000000          1
H         8.54834322       8.31190690       4.15337007         0.00000000       0.00000000       0.00000000          1
H         6.62457970      10.03901109       5.21192767         0.00000000       0.00000000       0.00000000          1
H         7.03562800       6.11613436       4.98677942         0.00000000       0.00000000       0.00000000          1
6
pbc=[F, F, F] list_num_par=6 energy=-1.26974174 iter=20000 frozen=false Lattice="15.00000000 0.00000000 0.00000000 0.00000000 15.00000000 0.00000000 0.00000000 0.00000000 15.00000000" energy_frozen_part=0.00000000 Properties=species:S:1:pos:R:3:velocities:R:3:Z:I:1
H         5.11233545       7.84276007       6.04648943         0.00000000       0.00000000       0.00000000          1
H         5.87781372       8.07854117       3.37016409         0.00000000       0.00000000       0.00000000          1
H         7.78346378       8.07509538       6.83094500         0.00000000       0.00000000       0.00000000          1
H         8.54893922       8.31088071       4.15461797         0.00000000       0.00000000       0.00000000          1
H         6.62642834      10.03829251       5.21494741         0.00000000       0.00000000       0.00000000          1
H         7.03484152       6.11535516       4.98615626         0.00000000       0.00000000       0.00000000          1
6
pbc=[F, F, F] list_num_par=6 energy=-1.26974174 iter=20000 frozen=false Lattice="15.00000000 0.00000000 0.00000000 0.00000000 15.00000000 0.00000000 0.00000000 0.00000000 15.00000000" energy_frozen_part=0.00000000 Properties=species:S:1:pos:R:3:velocities:R:3:Z:I:1
H         5.11187993       7.84319031       6.04531095         0.00000000       0.00000000       0.00000000          1
H         5.87742667       8.07704902       3.36883489         0.00000000       0.00000000       0.00000000          1
H         7.78278127       8.07807659       6.82977876         0.00000000       0.00000000       0.00000000          1
H         8.54832819       8.31194012       4.15329448         0.00000000       0.00000000       0.00000000          1
H         6.62454299      10.03899222       5.21189655         0.00000000       0.00000000       0.00000000          1
H         7.03566494       6.11613454       4.98671651         0.00000000       0.00000000       0.00000000          1
6
pbc=[F, F, F] list_num_par=6 energy=-1.26974174 iter=20000 frozen=false Lattice="15.00000000 0.00000000 0.00000000 0.00000000 15.00000000 0.00000000 0.00000000 0.00000000 15.00000000" energy_frozen_part=0.00000000 Properties=species:S:1:pos:R:3:velocities:R:3:Z:I:1
H        11.61150571       4.27872079       4.54634066         0.00000000       0.00000000       0.00000000          1
H        14.22320427       6.91154432       5.90864475         0.00000000       0.00000000       0.00000000          1
H        13.78597441       5.65102799       3.45421505         0.00000000       0.00000000       0.00000000          1
H        11.71636122       7.06689898       4.68559525         0.00000000       0.00000000       0.00000000          1
H        12.04872939       5.53923822       7.00077203         0.00000000       0.00000000       0.00000000          1
H        14.11835517       4.12337115       5.76939954         0.00000000       0.00000000       0.00000000          1
6
pbc=[F, F, F] list_num_par=6 energy=-1.26974174 iter=20000 frozen=false Lattice="15.00000000 0.00000000 0.00000000 0.00000000 15.00000000 0.00000000 0.00000000 0.00000000 15.00000000" energy_frozen_part=0.00000000 Properties=species:S:1:pos:R:3:velocities:R:3:Z:I:1
H         5.13091392       7.84453848       6.03526640         0.00000000       0.00000000       0.00000000          1
H         5.90338116       8.06612117       3.35973493         0.00000000       0.00000000       0.00000000          1
H         7.80130817       8.06806300       6.82476186         0.00000000       0.00000000       0.00000000          1
H         8.57378249       8.28964039       4.14923065         0.00000000       0.00000000       0.00000000          1
H         6.65669035      10.02989898       5.19831568         0.00000000       0.00000000       0.00000000          1
H         7.04800714       6.10427922       4.98618158         0.00000000       0.00000000       0.00000000          1
6
pbc=[F, F, F] list_num_par=6 energy=-1.26974174 iter=20000 frozen=false Lattice="15.00000000 0.00000000 0.00000000 0.00000000 15.00000000 0.00000000 0.00000000 0.00000000 15.00000000" energy_frozen_part=0.00000000 Properties=species:S:1:pos:R:3:velocities:R:3:Z:I:1
H        11.61151020       4.27871619       4.54634956         0.00000000       0.00000000       0.00000000          1
H        14.22321697       6.91154028       5.90862492         0.00000000       0.00000000       0.00000000          1
H        13.78596801       5.65101733       3.45419947         0.00000000       0.00000000       0.00000000          1
H        11.71636173       7.06688629       4.68560242         0.00000000       0.00000000       0.00000000          1
H        12.04876110       5.53922466       7.00077670         0.00000000       0.00000000       0.00000000          1
H        14.11837605       4.12336968       5.76937813         0.00000000       0.00000000       0.00000000          1
6
pbc=[F, F, F] list_num_par=6 energy=-1.26974174 iter=20000 frozen=false Lattice="15.00000000 0.00000000 0.00000000 0.00000000 15.00000000 0.00000000 0.00000000 0.00000000 15.00000000" energy_frozen_part=0.00000000 Properties=species:S:1:pos:R:3:velocities:R:3:Z:I:1
H         5.13032787       7.84379818       6.03510273         0.00000000       0.00000000       0.00000000          1
H         5.90250862       8.06500677       3.35945323         0.00000000       0.00000000       0.00000000          1
H         7.80080884       8.06735019       6.82429269         0.00000000       0.00000000       0.00000000          1
H         8.57299698       8.28855239       4.14864221         0.00000000       0.00000000       0.00000000          1
H         6.65607690      10.02900546       5.19770034         0.00000000       0.00000000       0.00000000          1
H         7.04725059       6.10335287       4.98604241         0.00000000       0.00000000       0.00000000          1
6
pbc=[F, F, F] list_num_par=6 energy=-1.26974174 iter=20000 frozen=false Lattice="15.00000000 0.00000000 0.00000000 0.00000000 15.00000000 0.00000000 0.00000000 0.00000000 15.00000000" energy_frozen_part=0.00000000 Properties=species:S:1:pos:R:3:velocities:R:3:Z:I:1
H         5.13031270       7.84379276       6.03508607         0.00000000       0.00000000       0.00000000          1
H         5.90254004       8.06499689       3.35944506         0.00000000       0.00000000       0.00000000          1
H         7.80078887       8.06735437       6.82430591         0.00000000       0.00000000       0.00000000          1
H         8.57301277       8.28857026       4.14867420         0.00000000       0.00000000       0.00000000          1
H         6.65606150      10.02899930       5.19769826         0.00000000       0.00000000       0.00000000          1
H         7.04725777       6.10335251       4.98605686         0.00000000       0.00000000       0.00000000          1
6
pbc=[F, F, F] list_num_par=6 energy=-1.26974174 iter=20000 frozen=false Lattice="15.00000000 0.00000000 0.00000000 0.00000000 15.00000000 0.00000000 0.00000000 0.00000000 15.00000000" energy_frozen_part=0.00000000 Properties=species:S:1:pos:R:3:velocities:R:3:Z:I:1
H         5.13028902       7.84379885       6.03506278         0.00000000       0.00000000       0.00000000          1
H         5.90252867       8.06499083       3.35943015         0.00000000       0.00000000       0.00000000          1
H         7.80076065       8.06737241       6.82430724         0.00000000       0.00000000       0.00000000          1
H         8.57300331       8.28856277       4.14867207         0.00000000       0.00000000       0.00000000          1
H         6.65604889      10.02900922       5.19768002         0.00000000       0.00000000       0.00000000          1
H         7.04724406       6.10335943       4.98605841         0.00000000       0.00000000       0.00000000          1
6
pbc=[F, F, F] list_num_par=6 energy=-1.26974174 iter=20000 frozen=false Lattice="15.00000000 0.00000000 0.00000000 0.00000000 15.00000000 0.00000000 0.00000000 0.00000000 15.00000000" energy_frozen_part=0.00000000 Properties=species:S:1:pos:R:3:velocities:R:3:Z:I:1
H         5.13072820       7.84378413       6.03527200         0.00000000       0.00000000       0.00000000          1
H         5.90276782       8.06531140       3.35961268         0.00000000       0.00000000       0.00000000          1
H         7.80122315       8.06762640       6.82435808         0.00000000       0.00000000       0.00000000          1
H         8.57325432       8.28915602       4.14870073         0.00000000       0.00000000       0.00000000          1
H         6.65614922      10.02925898       5.19799052         0.00000000       0.00000000       0.00000000          1
H         7.04783709       6.10367889       4.98598998         0.00000000       0.00000000       0.00000000          1
6
pbc=[F, F, F] list_num_par=6 energy=-1.26974174 iter=20000 frozen=false Lattice="15.00000000 0.00000000 0.00000000 0.00000000 15.00000000 0.00000000 0.00000000 0.00000000 15.00000000" energy_frozen_part=0.00000000 Properties=species:S:1:pos:R:3:velocities:R:3:Z:I:1
H         5.13093449       7.84449350       6.03531022         0.00000000       0.00000000       0.00000000          1
H         5.90336346       8.06604914       3.35976451         0.00000000       0.00000000       0.00000000          1
H         7.80133159       8.06809266       6.82477867         0.00000000       0.00000000       0.00000000          1
H         8.57377184       8.28965253       4.14923648         0.00000000       0.00000000       0.00000000          1
H         6.65665269      10.02987520       5.19830712         0.00000000       0.00000000       0.00000000          1
H         7.04805766       6.10426873       4.98623068         0.00000000       0.00000000       0.00000000          1
6
pbc=[F, F, F] list_num_par=6 energy=-1.26974174 iter=20000 frozen=false Lattice="15.00000000 0.00000000 0.00000000 0.00000000 15.00000000 0.00000000 0.00000000 0.00000000 15.00000000" energy_frozen_part=0.00000000 Properties=species:S:1:pos:R:3:velocities:R:3:Z:I:1
H        11.61151317       4.27862823       4.54644012         0.00000000       0.00000000       0.00000000          1
H        14.22307655       6.91155594       5.90878153         0.00000000       0.00000000       0.00000000          1
H        13.78584769       5.65114319       3.45430082         0.00000000       0.00000000       0.00000000          1
H        11.71616964       7.06679909       4.68582321         0.00000000       0.00000000       0.00000000          1
H        12.04874719       5.53904835       7.00091522         0.00000000       0.00000000       0.00000000          1
H        14.11841486       4.12339055       5.76938855         0.00000000       0.00000000       0.00000000          1
6
pbc=[F, F, F] list_num_par=6 energy=-1.26974174 iter=20000 frozen=false Lattice="15.00000000 0.00000000 0.00000000 0.00000000 15.00000000 0.00000000 0.00000000 0.00000000 15.00000000" energy_frozen_part=0.00000000 Properties=species:S:1:pos:R:3:velocities:R:3:Z:I:1
H         5.11216118       7.84288968       6.04641983         0.00000000       0.00000000       0.00000000          1
H         5.87773814       8.07870786       3.37012763         0.00000000       0.00000000       0.00000000          1
H         7.78329663       8.07484565       6.83095695         0.00000000       0.00000000       0.00000000          1
H         8.54887664       8.31066010       4.15466179         0.00000000       0.00000000       0.00000000          1
H         6.62656237      10.03826669       5.21503577         0.00000000       0.00000000       0.00000000          1
H         7.03447473       6.11528329       4.98604341         0.00000000       0.00000000       0.00000000          1
6
pbc=[F, F, F] list_num_par=6 energy=-1.26974174 iter=20000 frozen=false Lattice="15.00000000 0.00000000 0.00000000 0.00000000 15.00000000 0.00000000 0.00000000 0.00000000 15.00000000" energy_frozen_part=0.00000000 Properties=species:S:1:pos:R:3:velocities:R:3:Z:I:1
H         5.11236902       7.84277709       6.04650284         0.00000000       0.00000000       0.00000000          1
H         5.87783746       8.07851880       3.37017528         0.00000000       0.00000000       0.00000000          1
H         7.78350148       8.07511210       6.83095740         0.00000000       0.00000000       0.00000000          1
H         8.54897055       8.31085226       4.15462357         0.00000000       0.00000000       0.00000000          1
H         6.62647985      10.03828998       5.21493898         0.00000000       0.00000000       0.00000000          1
H         7.03486625       6.11534835       4.98619133         0.00000000       0.00000000       0.00000000          1
6
pbc=[F, F, F] list_num_par=6 energy=-1.26974174 iter=20000 frozen=false Lattice="15.00000000 0.00000000 0.00000000 0.00000000 15.00000000 0.00000000 0.00000000 0.00000000 15.00000000" energy_frozen_part=0.00000000 Properties=species:S:1:pos:R:3:velocities:R:3:Z:I:1
H         5.13053652       7.84413520       6.03550710         0.00000000       0.00000000       0.00000000          1
H         5.90250448       8.06519947       3.35978270         0.00000000       0.00000000       0.00000000          1
H         7.80106724       8.06793256       6.82446421         0.00000000       0.00000000       0.00000000          1
H         8.57303556       8.28899093       4.14873918         0.00000000       0.00000000       0.00000000          1
H         6.65606295      10.02938404       5.19782278         0.00000000       0.00000000       0.00000000          1
H         7.04749672       6.10374751       4.98642635         0.00000000       0.00000000       0.00000000          1
6
pbc=[F, F, F] list_num_par=6 energy=-1.26974174 iter=20000 frozen=false Lattice="15.00000000 0.00000000 0.00000000 0.00000000 15.00000000 0.00000000 0.00000000 0.00000000 15.00000000" energy_frozen_part=0.00000000 Properties=species:S:1:pos:R:3:velocities:R:3:Z:I:1
H        11.61151419       4.27872128       4.54633674         0.00000000       0.00000000       0.00000000          1
H        14.22320585       6.91153007       5.90864875         0.00000000       0.00000000       0.00000000          1
H        13.78597648       5.65104295       3.45420344         0.00000000       0.00000000       0.00000000          1
H        11.71635447       7.06688745       4.68559833         0.00000000       0.00000000       0.00000000          1
H        12.04875001       5.53921317       7.00076996         0.00000000       0.00000000       0.00000000          1
H        14.11836830       4.12336459       5.76937215         0.00000000       0.00000000       0.00000000          1
6
pbc=[F, F, F] list_num_par=6 energy=-1.26974174 iter=20000 frozen=false Lattice="15.00000000 0.00000000 0.00000000 0.00000000 15.00000000 0.00000000 0.00000000 0.00000000 15.00000000" energy_frozen_part=0.00000000 Properties=species:S:1:pos:R:3:velocities:R:3:Z:I:1
H         5.13092394       7.84453549       6.03526508         0.00000000       0.00000000       0.00000000          1
H         5.90338993       8.06611673       3.35973414         0.00000000       0.00000000       0.00000000          1
H         7.80131576       8.06807110       6.82476777         0.00000000       0.00000000       0.00000000          1
H         8.57378333       8.28966452       4.14923078         0.00000000       0.00000000       0.00000000          1
H         6.65669676      10.02990191       5.19831894         0.00000000       0.00000000       0.00000000          1
H         7.04802242       6.10429192       4.98617948         0.00000000       0.00000000       0.00000000          1
6
pbc=[F, F, F] list_num_par=6 energy=-1.26974174 iter=20000 frozen=false Lattice="15.00000000 0.00000000 0.00000000 0.00000000 15.00000000 0.00000000 0.00000000 0.00000000 15.00000000" energy_frozen_part=0.00000000 Properties=species:S:1:pos:R:3:velocities:R:3:Z:I:1
H        11.61149310       4.27871534       4.54634972         0.00000000       0.00000000       0.00000000          1
H        14.22322506       6.91152470       5.90862024         0.00000000       0.00000000       0.00000000          1
H        13.78597632       5.65098377       3.45421130         0.00000000       0.00000000       0.00000000          1
H        11.71637541       7.06688994       4.68556325         0.00000000       0.00000000       0.00000000          1
H        12.04874549       5.53924734       7.00076393         0.00000000       0.00000000       0.00000000          1
H        14.11834387       4.12335122       5.76940376         0.00000000       0.00000000       0.00000000          1
6
pbc=[F, F, F] list_num_par=6 energy=-1.26974174 iter=20000 frozen=false Lattice="15.00000000 0.00000000 0.00000000 0.00000000 15.00000000 0.00000000 0.00000000 0.00000000 15.00000000" energy_frozen_part=0.00000000 Properties=species:S:1:pos:R:3:velocities:R:3:Z:I:1
H         5.13073162       7.84377719       6.03527599         0.00000000       0.00000000       0.00000000          1
H         5.90276161       8.06531141       3.35962106         0.00000000       0.00000000       0.00000000          1