6
pbc=[F, F, F] list_num_par=6 frozen=false iter=9 energy=3.67163297 Lattice="15.00000000 0.00000000 0.00000000 0.00000000 15.00000000 0.00000000 0.00000000 0.00000000 15.00000000" energy_frozen_part=0.00000000 Properties=species:S:1:pos:R:3:velocities:R:3:Z:I:1
H         3.13304217       4.78359342       2.88780188         0.00000000       0.00000000       0.00000000          1
H         7.21678676      10.79945262       1.61777632         0.00000000       0.00000000       0.00000000          1
H         5.58247124       5.25876880      13.94147000         0.00000000       0.00000000       0.00000000          1
H        12.13689298      11.80134461       5.21578898         0.00000000       0.00000000       0.00000000          1
H         1.32270449      11.26269173       4.53082003         0.00000000       0.00000000       0.00000000          1
H        10.22354662      11.95684543       5.85043284         0.00000000       0.00000000       0.00000000          1
6
pbc=[F, F, F] list_num_par=6 frozen=false iter=19 energy=0.27371184 Lattice="15.00000000 0.00000000 0.00000000 0.00000000 15.00000000 0.00000000 0.00000000 0.00000000 15.00000000" energy_frozen_part=0.00000000 Properties=species:S:1:pos:R:3:velocities:R:3:Z:I:1
H         7.22982250       7.16615789      11.97688982         0.00000000       0.00000000       0.00000000          1
H         8.07564888       9.86385373       6.27158162         0.00000000       0.00000000       0.00000000          1
H        13.14524728      11.62520056       0.13019043         0.00000000       0.00000000       0.00000000          1
H         2.13563781       7.96530182      13.43104056         0.00000000       0.00000000       0.00000000          1
H         9.93926306      10.95780746       5.36668952         0.00000000       0.00000000       0.00000000          1
H         7.71412333      14.99075860      14.44353974         0.00000000       0.00000000       0.00000000          1
6
pbc=[F, F, F] list_num_par=6 frozen=false iter=29 energy=-0.00265015 Lattice="15.00000000 0.00000000 0.00000000 0.00000000 15.00000000 0.00000000 0.00000000 0.00000000 15.00000000" energy_frozen_part=0.00000000 Properties=species:S:1:pos:R:3:velocities:R:3:Z:I:1
H        14.63387064       6.73114326      11.14681849         0.00000000       0.00000000       0.00000000          1
H         7.67138448       2.87334274       0.90842148         0.00000000       0.00000000       0.00000000          1
H         6.63923316       0.94472503       8.67943149         0.00000000       0.00000000       0.00000000          1
H         9.89053501      14.78804006       3.17662138         0.00000000       0.00000000       0.00000000          1
H         2.03989830       3.87024286       2.65290915         0.00000000       0.00000000       0.00000000          1
H         0.86554156      12.14785840       0.07378249         0.00000000       0.00000000       0.00000000          1
6
pbc=[F, F, F] list_num_par=6 frozen=false iter=39 energy=-0.00684117 Lattice="15.00000000 0.00000000 0.00000000 0.00000000 15.00000000 0.00000000 0.00000000 0.00000000 15.00000000" energy_frozen_part=0.00000000 Properties=species:S:1:pos:R:3:velocities:R:3:Z:I:1
H         1.04068640       5.60009542       0.78371466         0.00000000       0.00000000       0.00000000          1
H         5.97149901       7.11003206       6.83805259         0.00000000       0.00000000       0.00000000          1
H        14.68944520       9.42690034       8.31540417         0.00000000       0.00000000       0.00000000          1
H         7.56585015      12.41081221       4.69318285         0.00000000       0.00000000       0.00000000          1
H         5.65840522       0.16986792       3.82119656         0.00000000       0.00000000       0.00000000          1
H         3.52176585      11.97391639       0.52625363         0.00000000       0.00000000       0.00000000          1
6
pbc=[F, F, F] list_num_par=6 frozen=false iter=49 energy=-0.00976571 Lattice="15.00000000 0.00000000 0.00000000 0.00000000 15.00000000 0.00000000 0.00000000 0.00000000 15.00000000" energy_frozen_part=0.00000000 Properties=species:S:1:pos:R:3:velocities:R:3:Z:I:1
H         3.21757902       3.62759672       2.58656768         0.00000000       0.00000000       0.00000000          1
H         3.34917344       3.93967144      11.12534060         0.00000000       0.00000000       0.00000000          1
H        12.64207478       3.94791060       0.68892478         0.00000000       0.00000000       0.00000000          1
H         9.41341607      13.62946287      12.04537956         0.00000000       0.00000000       0.00000000          1
H        13.35455710       3.99507222      10.24068969         0.00000000       0.00000000       0.00000000          1
H         2.84900380       8.50440303      11.83830509         0.00000000       0.00000000       0.00000000          1
6
pbc=[F, F, F] list_num_par=6 frozen=false iter=59 energy=-0.01235533 Lattice="15.00000000 0.00000000 0.00000000 0.00000000 15.00000000 0.00000000 0.00000000 0.00000000 15.00000000" energy_frozen_part=0.00000000 Properties=species:S:1:pos:R:3:velocities:R:3:Z:I:1
H         1.91758962      11.32467439      14.92272039         0.00000000       0.00000000       0.00000000          1
H         6.62371026      10.88383261       4.61211973         0.00000000       0.00000000       0.00000000          1
H         9.46454639       4.44033373       7.67192318         0.00000000       0.00000000       0.00000000          1
H         6.81579853      12.45143677      14.12394055         0.00000000       0.00000000       0.00000000          1
H         2.65106367      12.36626551       8.74420843         0.00000000       0.00000000       0.00000000          1
H        12.46526552      12.97999044      12.21188838         0.00000000       0.00000000       0.00000000          1
6
pbc=[F, F, F] list_num_par=6 frozen=false iter=69 energy=-0.01530257 Lattice="15.00000000 0.00000000 0.00000000 0.00000000 15.00000000 0.00000000 0.00000000 0.00000000 15.00000000" energy_frozen_part=0.00000000 Properties=species:S:1:pos:R:3:velocities:R:3:Z:I:1
H         3.70587274       4.28294408      11.50838697         0.00000000       0.00000000       0.00000000          1
H        10.78468831       1.37488503       3.41478052         0.00000000       0.00000000       0.00000000          1
H         3.20133332      10.09860081       2.07191537         0.00000000       0.00000000       0.00000000          1
H         9.45722625       7.67730260       1.12586729         0.00000000       0.00000000       0.00000000          1
H         2.72240987       6.18317329       4.05224085         0.00000000       0.00000000       0.00000000          1
H        12.22997193      11.45948897       9.69528831         0.00000000       0.00000000       0.00000000          1
6
pbc=[F, F, F] list_num_par=6 frozen=false iter=79 energy=-0.01883012 Lattice="15.00000000 0.00000000 0.00000000 0.00000000 15.00000000 0.00000000 0.00000000 0.00000000 15.00000000" energy_frozen_part=0.00000000 Properties=species:S:1:pos:R:3:velocities:R:3:Z:I:1
H        11.13114624       1.08657283       4.99181451         0.00000000       0.00000000       0.00000000          1
H        11.84239040       7.41199180      14.84202980         0.00000000       0.00000000       0.00000000          1
H         9.69325632       7.89579383       7.60687242         0.00000000       0.00000000       0.00000000          1
H        12.63741203      11.90192512       2.10757031         0.00000000       0.00000000       0.00000000          1
H        14.16117611       8.95423070       5.05692769         0.00000000       0.00000000       0.00000000          1
H         2.92915297      10.33959723       9.20921716         0.00000000       0.00000000       0.00000000          1
6
pbc=[F, F, F] list_num_par=6 frozen=false iter=89 energy=-0.02386464 Lattice="15.00000000 0.00000000 0.00000000 0.00000000 15.00000000 0.00000000 0.00000000 0.00000000 15.00000000" energy_frozen_part=0.00000000 Properties=species:S:1:pos:R:3:velocities:R:3:Z:I:1
H         4.69477941       5.32314121      14.99444929         0.00000000       0.00000000       0.00000000          1
H         9.63017062       1.09405413      12.37716103         0.00000000       0.00000000       0.00000000          1
H        14.75590020      13.25667205       7.88156508         0.00000000       0.00000000       0.00000000          1
H        14.47459451      13.06067835      11.91518548         0.00000000       0.00000000       0.00000000          1
H         4.59001889       7.69575448       2.32715398         0.00000000       0.00000000       0.00000000          1
H         4.24023517       3.12836378       6.16217084         0.00000000       0.00000000       0.00000000          1
6
pbc=[F, F, F] list_num_par=6 frozen=false iter=99 energy=-0.02751142 Lattice="15.00000000 0.00000000 0.00000000 0.00000000 15.00000000 0.00000000 0.00000000 0.00000000 15.00000000" energy_frozen_part=0.00000000 Properties=species:S:1:pos:R:3:velocities:R:3:Z:I:1
H         3.44509883      13.31462436       0.57187103         0.00000000       0.00000000       0.00000000          1
H        11.90494551      11.72600855       5.51007915         0.00000000       0.00000000       0.00000000          1
H        12.92774387       4.00280845       4.07705811         0.00000000       0.00000000       0.00000000          1
H         0.18214979       9.92409666       4.13022974         0.00000000       0.00000000       0.00000000          1
H         5.06486579      13.88987731       6.47846299         0.00000000       0.00000000       0.00000000          1
H        10.18618320       7.31123716       4.28442767         0.00000000       0.00000000       0.00000000          1
6
pbc=[F, F, F] list_num_par=6 frozen=false iter=109 energy=-0.03598460 Lattice="15.00000000 0.00000000 0.00000000 0.00000000 15.00000000 0.00000000 0.00000000 0.00000000 15.00000000" energy_frozen_part=0.00000000 Properties=species:S:1:pos:R:3:velocities:R:3:Z:I:1
H         6.72033157      10.03172812       5.51769501         0.00000000       0.00000000       0.00000000          1
H        10.17025697      13.45980905       5.11141962         0.00000000       0.00000000       0.00000000          1
H         1.67676685       7.70203094       8.18783781         0.00000000       0.00000000       0.00000000          1
H        13.94567183       1.51982121       9.15652428         0.00000000       0.00000000       0.00000000          1
H        10.83487810       9.02037351       4.82183087         0.00000000       0.00000000       0.00000000          1
H         6.99532163       5.05340393      12.26764575         0.00000000       0.00000000       0.00000000          1
6
pbc=[F, F, F] list_num_par=6 frozen=false iter=119 energy=-0.04169277 Lattice="15.00000000 0.00000000 0.00000000 0.00000000 15.00000000 0.00000000 0.00000000 0.00000000 15.00000000" energy_frozen_part=0.00000000 Properties=species:S:1:pos:R:3:velocities:R:3:Z:I:1
H         1.26642141      12.64662836       6.44637412         0.00000000       0.00000000       0.00000000          1
H         6.00113102       8.90917232       4.69077932         0.00000000       0.00000000       0.00000000          1
H         4.95712546       8.05971639       0.00109087         0.00000000       0.00000000       0.00000000          1
H         0.58149654      14.50934198       9.63962233         0.00000000       0.00000000       0.00000000          1
H         8.94183652       7.93761344      10.45435773         0.00000000       0.00000000       0.00000000          1
H         7.60184231       0.49512696       8.41317464         0.00000000       0.00000000       0.00000000          1
6
pbc=[F, F, F] list_num_par=6 frozen=false iter=129 energy=-0.04668456 Lattice="15.00000000 0.00000000 0.00000000 0.00000000 15.00000000 0.00000000 0.00000000 0.00000000 15.00000000" energy_frozen_part=0.00000000 Properties=species:S:1:pos:R:3:velocities:R:3:Z:I:1
H         2.39678254       5.22706728       4.29876765         0.00000000       0.00000000       0.00000000          1
H         2.34619455       4.81459756      13.05387996         0.00000000       0.00000000       0.00000000          1
H         0.70880522      11.52873577       6.84582605         0.00000000       0.00000000       0.00000000          1
H        12.75791765       1.50619683      13.07561961         0.00000000       0.00000000       0.00000000          1
H         2.40920439       5.83318441       9.46369626         0.00000000       0.00000000       0.00000000          1
H         7.54086577       1.93539696      12.34443740         0.00000000       0.00000000       0.00000000          1
6
pbc=[F, F, F] list_num_par=6 frozen=false iter=139 energy=-0.05371704 Lattice="15.00000000 0.00000000 0.00000000 0.00000000 15.00000000 0.00000000 0.00000000 0.00000000 15.00000000" energy_frozen_part=0.00000000 Properties=species:S:1:pos:R:3:velocities:R:3:Z:I:1
H         0.61100271       3.62602424       0.33525354         0.00000000       0.00000000       0.00000000          1
H         0.54782204       6.51823296       6.42732108         0.00000000       0.00000000       0.00000000          1
H         4.08237609      12.45484079       9.64780554         0.00000000       0.00000000       0.00000000          1
H         9.73590165       7.14016811       1.85242341         0.00000000       0.00000000       0.00000000          1
H        13.46309412      12.06530032       2.81313833         0.00000000       0.00000000       0.00000000          1
H         6.97427372       8.18823761       3.63654321         0.00000000       0.00000000       0.00000000          1
6
pbc=[F, F, F] list_num_par=6 frozen=false iter=149 energy=-0.05956168 Lattice="15.00000000 0.00000000 0.00000000 0.00000000 15.00000000 0.00000000 0.00000000 0.00000000 15.00000000" energy_frozen_part=0.00000000 Properties=species:S:1:pos:R:3:velocities:R:3:Z:I:1
H        14.57926846       7.86755001       2.10016932         0.00000000       0.00000000       0.00000000          1
H        14.24412242      10.55085220       7.71811242         0.00000000       0.00000000       0.00000000          1
H         0.54806042       5.07742507       0.35053175         0.00000000       0.00000000       0.00000000          1
H         1.21041549       2.57511764       2.48154794         0.00000000       0.00000000       0.00000000          1
H         4.40160122       5.76809893      12.54023076         0.00000000       0.00000000       0.00000000          1
H         6.80796541       8.60554541       6.41953459         0.00000000       0.00000000       0.00000000          1
6
pbc=[F, F, F] list_num_par=6 frozen=false iter=159 energy=-0.06363021 Lattice="15.00000000 0.00000000 0.00000000 0.00000000 15.00000000 0.00000000 0.00000000 0.00000000 15.00000000" energy_frozen_part=0.00000000 Properties=species:S:1:pos:R:3:velocities:R:3:Z:I:1
H        13.50091896       7.51585027       9.90286861         0.00000000       0.00000000       0.00000000          1
H         6.21380232       4.58350708      11.55037071         0.00000000       0.00000000       0.00000000          1
H        10.22986094       5.77679645      12.84761155         0.00000000       0.00000000       0.00000000          1
H         1.76597765       0.71394928      12.73622754         0.00000000       0.00000000       0.00000000          1
H         8.86394266       7.98099700       9.76631040         0.00000000       0.00000000       0.00000000          1
H        13.40008202      12.88950590       0.58146567         0.00000000       0.00000000       0.00000000          1
6
pbc=[F, F, F] list_num_par=6 frozen=false iter=169 energy=-0.06950980 Lattice="15.00000000 0.00000000 0.00000000 0.00000000 15.00000000 0.00000000 0.00000000 0.00000000 15.00000000" energy_frozen_part=0.00000000 Properties=species:S:1:pos:R:3:velocities:R:3:Z:I:1
H         2.19004733       5.71642333       6.12247357         0.00000000       0.00000000       0.00000000          1
H        14.70426696      13.80767944       8.45810551         0.00000000       0.00000000       0.00000000          1
H         9.51379102       1.09673843       9.19176329         0.00000000       0.00000000       0.00000000          1
H         4.04077876       8.71829323      12.03321707         0.00000000       0.00000000       0.00000000          1
H        12.57796012       3.48269450       8.51751271         0.00000000       0.00000000       0.00000000          1
H         7.29670459      10.07121728      11.88412336         0.00000000       0.00000000       0.00000000          1
6
pbc=[F, F, F] list_num_par=6 frozen=false iter=179 energy=-0.07453709 Lattice="15.00000000 0.00000000 0.00000000 0.00000000 15.00000000 0.00000000 0.00000000 0.00000000 15.00000000" energy_frozen_part=0.00000000 Properties=species:S:1:pos:R:3:velocities:R:3:Z:I:1
H         5.20268946       2.43507226       2.30117529         0.00000000       0.00000000       0.00000000          1
H         5.45597847       2.59552671      14.23194310         0.00000000       0.00000000       0.00000000          1
H         3.36927539       9.39949468       8.62736224         0.00000000       0.00000000       0.00000000          1
H        12.38735909       7.46358919      12.28348971         0.00000000       0.00000000       0.00000000          1
H         1.59449402       5.87802413       4.30196009         0.00000000       0.00000000       0.00000000          1
H         5.74923999       4.53802595      12.52791192         0.00000000       0.00000000       0.00000000          1
6
pbc=[F, F, F] list_num_par=6 frozen=false iter=189 energy=-0.08085431 Lattice="15.00000000 0.00000000 0.00000000 0.00000000 15.00000000 0.00000000 0.00000000 0.00000000 15.00000000" energy_frozen_part=0.00000000 Properties=species:S:1:pos:R:3:velocities:R:3:Z:I:1
H        10.23091684      12.14515743       6.23184804         0.00000000       0.00000000       0.00000000          1
H        13.69147074       2.23882933      11.24602904         0.00000000       0.00000000       0.00000000          1
H        13.72595805       9.58073540       6.46693175         0.00000000       0.00000000       0.00000000          1
H         6.15579836      12.37326031       3.22114528         0.00000000       0.00000000       0.00000000          1
H        14.43955063      11.16474925      13.80900921         0.00000000       0.00000000       0.00000000          1
H        11.61754432       9.97495571      12.47923320         0.00000000       0.00000000       0.00000000          1
6
pbc=[F, F, F] list_num_par=6 frozen=false iter=199 energy=-0.08667642 Lattice="15.00000000 0.00000000 0.00000000 0.00000000 15.00000000 0.00000000 0.00000000 0.00000000 15.00000000" energy_frozen_part=0.00000000 Properties=species:S:1:pos:R:3:velocities:R:3:Z:I:1
H         6.35289210      12.12535581       5.23202403         0.00000000       0.00000000       0.00000000          1
H         9.13637839       8.63931798      11.67798917         0.00000000       0.00000000       0.00000000          1
H         1.33561847      14.68172108       8.48023166         0.00000000       0.00000000       0.00000000          1
H        11.34831672       7.43526298       2.59048878         0.00000000       0.00000000       0.00000000          1
H        14.68943718       2.62033185       7.56463070         0.00000000       0.00000000       0.00000000          1
H        12.77471866       5.20796844       2.64580529         0.00000000       0.00000000       0.00000000          1
6
pbc=[F, F, F] list_num_par=6 frozen=false iter=209 energy=-0.08852899 Lattice="15.00000000 0.00000000 0.00000000 0.00000000 15.00000000 0.00000000 0.00000000 0.00000000 15.00000000" energy_frozen_part=0.00000000 Properties=species:S:1:pos:R:3:velocities:R:3:Z:I:1
H         6.96411551      13.07454146       6.64223155         0.00000000       0.00000000       0.00000000          1
H         2.68059737      10.23324178       7.65754557         0.00000000       0.00000000       0.00000000          1
H         1.43911803      14.37449066       6.01013470         0.00000000       0.00000000       0.00000000          1
H        14.32846755       8.40585186       3.97143079         0.00000000       0.00000000       0.00000000          1
H        11.57219707       3.26211641       3.28471410         0.00000000       0.00000000       0.00000000          1
H        11.61082772       5.03448500       0.56547259         0.00000000       0.00000000       0.00000000          1
6
pbc=[F, F, F] list_num_par=6 frozen=false iter=219 energy=-0.09257566 Lattice="15.00000000 0.00000000 0.00000000 0.00000000 15.00000000 0.00000000 0.00000000 0.00000000 15.00000000" energy_frozen_part=0.00000000 Properties=species:S:1:pos:R:3:velocities:R:3:Z:I:1
H         3.25497501      10.03263831      14.15103858         0.00000000       0.00000000       0.00000000          1
H         9.10500419       0.61010878       8.89565315         0.00000000       0.00000000       0.00000000          1
H         8.24112487       6.06737282       0.64639855         0.00000000       0.00000000       0.00000000          1
H         2.68774019       6.98019882      13.62748328         0.00000000       0.00000000       0.00000000          1
H        12.75987544       2.23153572       7.65605273         0.00000000       0.00000000       0.00000000          1
H         1.34630573       3.29514084       5.03285806         0.00000000       0.00000000       0.00000000          1
6
pbc=[F, F, F] list_num_par=6 frozen=false iter=229 energy=-0.09565024 Lattice="15.00000000 0.00000000 0.00000000 0.00000000 15.00000000 0.00000000 0.00000000 0.00000000 15.00000000" energy_frozen_part=0.00000000 Properties=species:S:1:pos:R:3:velocities:R:3:Z:I:1
H         7.57836769      13.87009622       2.67737090         0.00000000       0.00000000       0.00000000          1
H         5.91265990       9.07586936       9.66072902         0.00000000       0.00000000       0.00000000          1
H         5.63652331      12.41565915       1.46485582         0.00000000       0.00000000       0.00000000          1
H        12.85784708       8.61567958      11.39477426         0.00000000       0.00000000       0.00000000          1
H         2.67485145       1.83268764       4.07371192         0.00000000       0.00000000       0.00000000          1
H        14.79477579       2.79857064       0.06312335         0.00000000       0.00000000       0.00000000          1
6
pbc=[F, F, F] list_num_par=6 frozen=false iter=239 energy=-0.09798570 Lattice="15.00000000 0.00000000 0.00000000 0.00000000 15.00000000 0.00000000 0.00000000 0.00000000 15.00000000" energy_frozen_part=0.00000000 Properties=species:S:1:pos:R:3:velocities:R:3:Z:I:1
H        12.39689864      14.62817281      10.42565815         0.00000000       0.00000000       0.00000000          1
H         9.92028902      10.08335466       7.18132380         0.00000000       0.00000000       0.00000000          1
H         3.88124277      13.02421599       2.93852464         0.00000000       0.00000000       0.00000000          1
H         0.11464715      12.46833004       6.35550098         0.00000000       0.00000000       0.00000000          1
H        10.75325726       8.61003821       9.67166960         0.00000000       0.00000000       0.00000000          1
H         7.02472955       2.96404055       9.88523845         0.00000000       0.00000000       0.00000000          1
6
pbc=[F, F, F] list_num_par=6 frozen=false iter=249 energy=-0.10072115 Lattice="15.00000000 0.00000000 0.00000000 0.00000000 15.00000000 0.00000000 0.00000000 0.00000000 15.00000000" energy_frozen_part=0.00000000 Properties=species:S:1:pos:R:3:velocities:R:3:Z:I:1
H         3.05257476       0.13391339      14.46390159         0.00000000       0.00000000       0.00000000          1
H        10.83787881       2.24285582       0.89068834         0.00000000       0.00000000       0.00000000          1
H        10.18458489       2.26047575       8.59121088         0.00000000       0.00000000       0.00000000          1
H        10.98418850       0.76601689       3.38244995         0.00000000       0.00000000       0.00000000          1
H        12.47243884      10.69983701       4.55708620         0.00000000       0.00000000       0.00000000          1
H         3.65429680       9.35419968       3.39682574         0.00000000       0.00000000       0.00000000          1
6
pbc=[F, F, F] list_num_par=6 frozen=false iter=259 energy=-0.10318557 Lattice="15.00000000 0.00000000 0.00000000 0.00000000 15.00000000 0.00000000 0.00000000 0.00000000 15.00000000" energy_frozen_part=0.00000000 Properties=species:S:1:pos:R:3:velocities:R:3:Z:I:1
H         3.71518488      10.35327200       2.42089845         0.00000000       0.00000000       0.00000000          1
H        11.78288725      11.40404687      13.11354798         0.00000000       0.00000000       0.00000000          1
H         1.72486346      13.95143199       9.88751190         0.00000000       0.00000000       0.00000000          1
H         9.25650035       9.67955554       7.08293335         0.00000000       0.00000000       0.00000000          1
H        11.17505360      14.03779589      13.94258133         0.00000000       0.00000000       0.00000000          1
H        11.50057464       5.15054501      14.28319173         0.00000000       0.00000000       0.00000000          1
6
pbc=[F, F, F] list_num_par=6 frozen=false iter=269 energy=-0.10582991 Lattice="15.00000000 0.00000000 0.00000000 0.00000000 15.00000000 0.00000000 0.00000000 0.00000000 15.00000000" energy_frozen_part=0.00000000 Properties=species:S:1:pos:R:3:velocities:R:3:Z:I:1
H        12.48198324      12.36906868      13.60015418         0.00000000       0.00000000       0.00000000          1
H         8.64873659      14.41870850      10.73026416         0.00000000       0.00000000       0.00000000          1
H        10.80653022       2.05724559       9.21419587         0.00000000       0.00000000       0.00000000          1
H         9.32473908       6.96284356      10.77253333         0.00000000       0.00000000       0.00000000          1
H         6.90463537      11.47369185       0.47454564         0.00000000       0.00000000       0.00000000          1
H         9.72416523      12.07479267       0.05139919         0.00000000       0.00000000       0.00000000          1
6
pbc=[F, F, F] list_num_par=6 frozen=false iter=279 energy=-0.10768987 Lattice="15.00000000 0.00000000 0.00000000 0.00000000 15.00000000 0.00000000 0.00000000 0.00000000 15.00000000" energy_frozen_part=0.00000000 Properties=species:S:1:pos:R:3:velocities:R:3:Z:I:1
H         2.73496315       5.65186665      14.13524882         0.00000000       0.00000000       0.00000000          1
H        11.46492983       5.08185158       1.67219379         0.00000000       0.00000000       0.00000000          1
H        10.73061357       7.08350488       5.94091045         0.00000000       0.00000000       0.00000000          1
H         7.78465622      11.21900782       4.98641410         0.00000000       0.00000000       0.00000000          1
H        13.93754241       8.96935170       5.52746716         0.00000000       0.00000000       0.00000000          1
H         9.95485847       8.62256923       2.07005534         0.00000000       0.00000000       0.00000000          1
6
pbc=[F, F, F] list_num_par=6 frozen=false iter=289 energy=-0.10958548 Lattice="15.00000000 0.00000000 0.00000000 0.00000000 15.00000000 0.00000000 0.00000000 0.00000000 15.00000000" energy_frozen_part=0.00000000 Properties=species:S:1:pos:R:3:velocities:R:3:Z:I:1
H         1.63245845       2.81672396      12.41270143         0.00000000       0.00000000       0.00000000          1
H        10.05535806       8.30817519       1.84291584         0.00000000       0.00000000       0.00000000          1
H        11.28817224       9.38640974       6.23383955         0.00000000       0.00000000       0.00000000          1
H         5.25281408       7.78732386      10.02700517         0.00000000       0.00000000       0.00000000          1
H         9.67328925      13.39745637      12.64556567         0.00000000       0.00000000       0.00000000          1
H         4.31888524       9.56545894       7.94368913         0.00000000       0.00000000       0.00000000          1
6
pbc=[F, F, F] list_num_par=6 frozen=false iter=299 energy=-0.11394757 Lattice="15.00000000 0.00000000 0.00000000 0.00000000 15.00000000 0.00000000 0.00000000 0.00000000 15.00000000" energy_frozen_part=0.00000000 Properties=species:S:1:pos:R:3:velocities:R:3:Z:I:1
H        10.08098588      13.29502371       8.13881999         0.00000000       0.00000000       0.00000000          1
H         3.41502275       8.04104825      10.40547501         0.00000000       0.00000000       0.00000000          1
H         9.66465932       6.26559058       2.25751956         0.00000000       0.00000000       0.00000000          1
H         7.83912533       2.15175045      10.74176743         0.00000000       0.00000000       0.00000000          1
H         6.51803686      12.21210354       6.80430671         0.00000000       0.00000000       0.00000000          1
H         6.42101298      12.52279911       3.77217664         0.00000000       0.00000000       0.00000000          1
6
pbc=[F, F, F] list_num_par=6 frozen=false iter=309 energy=-0.11733723 Lattice="15.00000000 0.00000000 0.00000000 0.00000000 15.00000000 0.00000000 0.00000000 0.00000000 15.00000000" energy_frozen_part=0.00000000 Properties=species:S:1:pos:R:3:velocities:R:3:Z:I:1
H        11.59042187      11.90622380      10.31081269         0.00000000       0.00000000       0.00000000          1
H        12.12349542       2.46731189      12.38976495         0.00000000       0.00000000       0.00000000          1