6
pbc=[F, F, F] list_num_par=6 energy=85.96654067 iter=9 frozen=false Lattice="15.00000000 0.00000000 0.00000000 0.00000000 15.00000000 0.00000000 0.00000000 0.00000000 15.00000000" energy_frozen_part=0.00000000 Properties=species:S:1:pos:R:3:velocities:R:3:Z:I:1
H         3.04394743       1.42475250       0.43902946         0.00000000       0.00000000       0.00000000          1
H         4.22780445      10.71651727       2.17292895         0.00000000       0.00000000       0.00000000          1
H         3.43769843       9.35946018       1.92260717         0.00000000       0.00000000       0.00000000          1
H         5.81056769       5.80301555       5.03146544         0.00000000       0.00000000       0.00000000          1
H         6.29234119       7.81724975       5.80266933         0.00000000       0.00000000       0.00000000          1
H         6.49469024      12.02498150       1.15614719         0.00000000       0.00000000       0.00000000          1
6
pbc=[F, F, F] list_num_par=6 energy=5.62960924 iter=19 frozen=false Lattice="15.00000000 0.00000000 0.00000000 0.00000000 15.00000000 0.00000000 0.00000000 0.00000000 15.00000000" energy_frozen_part=0.00000000 Properties=species:S:1:pos:R:3:velocities:R:3:Z:I:1
H         8.07045090       1.73910428       8.77443004         0.00000000       0.00000000       0.00000000          1
H         0.61514786      10.39151948       9.10540652         0.00000000       0.00000000       0.00000000          1
H         2.94611609       1.07711091      11.98444273         0.00000000       0.00000000       0.00000000          1
H         1.97976224       5.16524817      10.92932919         0.00000000       0.00000000       0.00000000          1
H         2.27858064       6.90800029      10.08485940         0.00000000       0.00000000       0.00000000          1
H         6.44165220       5.42777302       9.29940523         0.00000000       0.00000000       0.00000000          1
6
pbc=[F, F, F] list_num_par=6 energy=1.38808852 iter=29 frozen=false Lattice="15.00000000 0.00000000 0.00000000 0.00000000 15.00000000 0.00000000 0.00000000 0.00000000 15.00000000" energy_frozen_part=0.00000000 Properties=species:S:1:pos:R:3:velocities:R:3:Z:I:1
H        14.60098474       3.63827927       6.54354577         0.00000000       0.00000000       0.00000000          1
H        13.34166360      10.64327517       3.91012594         0.00000000       0.00000000       0.00000000          1
H         6.58601753       8.10214286       3.59290736         0.00000000       0.00000000       0.00000000          1
H        12.75740944       2.88448863       5.72251777         0.00000000       0.00000000       0.00000000          1
H         9.27697110       0.61987845       9.12314352         0.00000000       0.00000000       0.00000000          1
H         6.57568644       0.42940652      12.48624772         0.00000000       0.00000000       0.00000000          1
6
pbc=[F, F, F] list_num_par=6 energy=-0.00252392 iter=39 frozen=false Lattice="15.00000000 0.00000000 0.00000000 0.00000000 15.00000000 0.00000000 0.00000000 0.00000000 15.00000000" energy_frozen_part=0.00000000 Properties=species:S:1:pos:R:3:velocities:R:3:Z:I:1
H         2.67224312      12.43749261       8.20684584         0.00000000       0.00000000       0.00000000          1
H         2.89769812       0.36517243       6.66926585         0.00000000       0.00000000       0.00000000          1
H         5.11732564      14.93327930       2.62335371         0.00000000       0.00000000       0.00000000          1
H         9.30061558       0.90761822       7.78630493         0.00000000       0.00000000       0.00000000          1
H         7.56464325       7.34579476       0.42441264         0.00000000       0.00000000       0.00000000          1
H        12.39638250       6.89563902      14.23116734         0.00000000       0.00000000       0.00000000          1
6
pbc=[F, F, F] list_num_par=6 energy=-0.00692296 iter=49 frozen=false Lattice="15.00000000 0.00000000 0.00000000 0.00000000 15.00000000 0.00000000 0.00000000 0.00000000 15.00000000" energy_frozen_part=0.00000000 Properties=species:S:1:pos:R:3:velocities:R:3:Z:I:1
H         3.66220642       1.86498377       6.86410154         0.00000000       0.00000000       0.00000000          1
H         2.36465095       6.58423048      11.25112499         0.00000000       0.00000000       0.00000000          1
H         5.91845710      12.65334397      11.58361702         0.00000000       0.00000000       0.00000000          1
H         8.46728645      11.15017151       5.93141795         0.00000000       0.00000000       0.00000000          1
H        14.64439177       0.34826867       5.30301020         0.00000000       0.00000000       0.00000000          1
H        14.45101498       1.76527892       0.07367475         0.00000000       0.00000000       0.00000000          1
6
pbc=[F, F, F] list_num_par=6 energy=-0.01078511 iter=59 frozen=false Lattice="15.00000000 0.00000000 0.00000000 0.00000000 15.00000000 0.00000000 0.00000000 0.00000000 15.00000000" energy_frozen_part=0.00000000 Properties=species:S:1:pos:R:3:velocities:R:3:Z:I:1
H         3.74892357       0.24191845      12.31299698         0.00000000       0.00000000       0.00000000          1
H         3.03301884      10.21608482       1.78593282         0.00000000       0.00000000       0.00000000          1
H         7.89977812       9.33180873       3.45850219         0.00000000       0.00000000       0.00000000          1
H         6.64697668       8.36023379      13.93829137         0.00000000       0.00000000       0.00000000          1
H         2.59985852       8.52063721      10.22834289         0.00000000       0.00000000       0.00000000          1
H        13.32897133       8.30613202       5.58226275         0.00000000       0.00000000       0.00000000          1
6
pbc=[F, F, F] list_num_par=6 energy=-0.01359728 iter=69 frozen=false Lattice="15.00000000 0.00000000 0.00000000 0.00000000 15.00000000 0.00000000 0.00000000 0.00000000 15.00000000" energy_frozen_part=0.00000000 Properties=species:S:1:pos:R:3:velocities:R:3:Z:I:1
H         6.59746013       3.39553071      12.04623937         0.00000000       0.00000000       0.00000000          1
H        13.55475840       7.32944216       9.61308934         0.00000000       0.00000000       0.00000000          1
H         4.53380494       6.96023455      14.26815077         0.00000000       0.00000000       0.00000000          1
H         0.29217659       1.02627553      10.10780703         0.00000000       0.00000000       0.00000000          1
H         4.75335604      14.31055380       3.43017284         0.00000000       0.00000000       0.00000000          1
H         3.09358888       9.37533272       1.76027849         0.00000000       0.00000000       0.00000000          1
6
pbc=[F, F, F] list_num_par=6 energy=-0.01994461 iter=79 frozen=false Lattice="15.00000000 0.00000000 0.00000000 0.00000000 15.00000000 0.00000000 0.00000000 0.00000000 15.00000000" energy_frozen_part=0.00000000 Properties=species:S:1:pos:R:3:velocities:R:3:Z:I:1
H         9.93637324      11.13840135      14.37098760         0.00000000       0.00000000       0.00000000          1
H         7.20011177      14.43565178      10.39838831         0.00000000       0.00000000       0.00000000          1
H        11.15585920       4.84058914       7.21384227         0.00000000       0.00000000       0.00000000          1
H        13.66111929      11.52090545       3.91964423         0.00000000       0.00000000       0.00000000          1
H         3.52342561       5.30154353       3.87969072         0.00000000       0.00000000       0.00000000          1
H         0.71416124       4.53300545       6.89749037         0.00000000       0.00000000       0.00000000          1
6
pbc=[F, F, F] list_num_par=6 energy=-0.02379526 iter=89 frozen=false Lattice="15.00000000 0.00000000 0.00000000 0.00000000 15.00000000 0.00000000 0.00000000 0.00000000 15.00000000" energy_frozen_part=0.00000000 Properties=species:S:1:pos:R:3:velocities:R:3:Z:I:1
H         2.57988308       9.94753895      11.84179631         0.00000000       0.00000000       0.00000000          1
H         8.53672795       8.13637385      12.65454605         0.00000000       0.00000000       0.00000000          1
H         7.58650964       9.10063856       5.50613661         0.00000000       0.00000000       0.00000000          1
H        11.78288569       7.58252484       0.66606980         0.00000000       0.00000000       0.00000000          1
H        10.26791573       4.89470295       3.56976473         0.00000000       0.00000000       0.00000000          1
H         7.74804174       0.30485484      13.49197896         0.00000000       0.00000000       0.00000000          1
6
pbc=[F, F, F] list_num_par=6 energy=-0.02659418 iter=99 frozen=false Lattice="15.00000000 0.00000000 0.00000000 0.00000000 15.00000000 0.00000000 0.00000000 0.00000000 15.00000000" energy_frozen_part=0.00000000 Properties=species:S:1:pos:R:3:velocities:R:3:Z:I:1
H         7.90977904       2.93597992      13.66023851         0.00000000       0.00000000       0.00000000          1
H         8.30567354       1.31131264       9.47455735         0.00000000       0.00000000       0.00000000          1
H         4.32043394       3.65479040       1.17701323         0.00000000       0.00000000       0.00000000          1
H         1.58709935      10.18767117      12.71023689         0.00000000       0.00000000       0.00000000          1
H         0.30018871       1.87293980       0.78521941         0.00000000       0.00000000       0.00000000          1
H         2.72137697       7.48398433       7.45419158         0.00000000       0.00000000       0.00000000          1
6
pbc=[F, F, F] list_num_par=6 energy=-0.02974954 iter=109 frozen=false Lattice="15.00000000 0.00000000 0.00000000 0.00000000 15.00000000 0.00000000 0.00000000 0.00000000 15.00000000" energy_frozen_part=0.00000000 Properties=species:S:1:pos:R:3:velocities:R:3:Z:I:1
H         7.84000289       6.10704534       4.83048955         0.00000000       0.00000000       0.00000000          1
H         9.13242370       1.35885394       3.60521244         0.00000000       0.00000000       0.00000000          1
H         3.69898739      11.79731180       2.66331665         0.00000000       0.00000000       0.00000000          1
H        12.14713765       6.24184363       6.21723258         0.00000000       0.00000000       0.00000000          1
H         3.55556477       6.26202710       6.56724049         0.00000000       0.00000000       0.00000000          1
H        12.16027647      11.43984677      12.01890121         0.00000000       0.00000000       0.00000000          1
6
pbc=[F, F, F] list_num_par=6 energy=-0.03758671 iter=119 frozen=false Lattice="15.00000000 0.00000000 0.00000000 0.00000000 15.00000000 0.00000000 0.00000000 0.00000000 15.00000000" energy_frozen_part=0.00000000 Properties=species:S:1:pos:R:3:velocities:R:3:Z:I:1
H         1.93729237      10.23185292       5.16125050         0.00000000       0.00000000       0.00000000          1
H        12.85611895       4.26877909      13.57077370         0.00000000       0.00000000       0.00000000          1
H         2.58020217       1.56754256      10.30916163         0.00000000       0.00000000       0.00000000          1
H        10.10626428       8.28849657       4.81396068         0.00000000       0.00000000       0.00000000          1
H        13.77595335       8.73612943       9.31332070         0.00000000       0.00000000       0.00000000          1
H        11.71106554      11.69986724      10.29792584         0.00000000       0.00000000       0.00000000          1
6
pbc=[F, F, F] list_num_par=6 energy=-0.04183632 iter=129 frozen=false Lattice="15.00000000 0.00000000 0.00000000 0.00000000 15.00000000 0.00000000 0.00000000 0.00000000 15.00000000" energy_frozen_part=0.00000000 Properties=species:S:1:pos:R:3:velocities:R:3:Z:I:1
H         1.82879832       6.17921195       4.05110878         0.00000000       0.00000000       0.00000000          1
H         5.86490888       3.48306503       5.39386548         0.00000000       0.00000000       0.00000000          1
H         6.39519849       2.24108946       9.81664671         0.00000000       0.00000000       0.00000000          1
H         4.97456638      13.89837032      14.38249186         0.00000000       0.00000000       0.00000000          1
H         7.44254927      11.28204913      12.26640566         0.00000000       0.00000000       0.00000000          1
H         2.64010479      10.07458509      10.95996938         0.00000000       0.00000000       0.00000000          1
6
pbc=[F, F, F] list_num_par=6 energy=-0.04656820 iter=139 frozen=false Lattice="15.00000000 0.00000000 0.00000000 0.00000000 15.00000000 0.00000000 0.00000000 0.00000000 15.00000000" energy_frozen_part=0.00000000 Properties=species:S:1:pos:R:3:velocities:R:3:Z:I:1
H         6.64958360       4.57177186      12.21646714         0.00000000       0.00000000       0.00000000          1
H         2.67212721      10.05782063      12.41984136         0.00000000       0.00000000       0.00000000          1
H        11.18386837       1.85846973      11.15871254         0.00000000       0.00000000       0.00000000          1
H         3.02472021       7.82978953       9.36666225         0.00000000       0.00000000       0.00000000          1
H         9.66873755      13.50746026       5.76374631         0.00000000       0.00000000       0.00000000          1
H        14.34092545      13.33977208       5.92476184         0.00000000       0.00000000       0.00000000          1
6
pbc=[F, F, F] list_num_par=6 energy=-0.05622326 iter=149 frozen=false Lattice="15.00000000 0.00000000 0.00000000 0.00000000 15.00000000 0.00000000 0.00000000 0.00000000 15.00000000" energy_frozen_part=0.00000000 Properties=species:S:1:pos:R:3:velocities:R:3:Z:I:1
H         8.11262363       3.07964684       3.50108786         0.00000000       0.00000000       0.00000000          1
H         3.29851871      11.81479082       9.43468607         0.00000000       0.00000000       0.00000000          1
H         9.74715513      13.63585246       0.15922065         0.00000000       0.00000000       0.00000000          1
H        13.50932932      11.94842902      11.65672823         0.00000000       0.00000000       0.00000000          1
H        10.32788945       2.35070715      14.37859522         0.00000000       0.00000000       0.00000000          1
H         4.78020137       9.80939523      10.09162432         0.00000000       0.00000000       0.00000000          1
6
pbc=[F, F, F] list_num_par=6 energy=-0.06432185 iter=159 frozen=false Lattice="15.00000000 0.00000000 0.00000000 0.00000000 15.00000000 0.00000000 0.00000000 0.00000000 15.00000000" energy_frozen_part=0.00000000 Properties=species:S:1:pos:R:3:velocities:R:3:Z:I:1
H         5.56495789      10.30817189       8.37204191         0.00000000       0.00000000       0.00000000          1
H         0.11638612      14.78189000       2.40708814         0.00000000       0.00000000       0.00000000          1
H         7.07476146      12.35697360       6.27702488         0.00000000       0.00000000       0.00000000          1
H         2.23228904       0.31655440       2.55187162         0.00000000       0.00000000       0.00000000          1
H         8.25737796       3.75885946       3.23933589         0.00000000       0.00000000       0.00000000          1
H         3.33762883       7.29614703      13.35386392         0.00000000       0.00000000       0.00000000          1
6
pbc=[F, F, F] list_num_par=6 energy=-0.07438504 iter=169 frozen=false Lattice="15.00000000 0.00000000 0.00000000 0.00000000 15.00000000 0.00000000 0.00000000 0.00000000 15.00000000" energy_frozen_part=0.00000000 Properties=species:S:1:pos:R:3:velocities:R:3:Z:I:1
H        12.09214384      14.93458694      10.92984778         0.00000000       0.00000000       0.00000000          1
H        11.72734874       3.43435162       1.17778746         0.00000000       0.00000000       0.00000000          1
H        13.32116590       2.05983948       6.88099188         0.00000000       0.00000000       0.00000000          1
H         9.52727694       0.46773105       3.87589887         0.00000000       0.00000000       0.00000000          1
H        10.89238831      12.34581121      14.85242855         0.00000000       0.00000000       0.00000000          1
H        10.30808404      12.15304312       9.71775179         0.00000000       0.00000000       0.00000000          1
6
pbc=[F, F, F] list_num_par=6 energy=-0.07993521 iter=179 frozen=false Lattice="15.00000000 0.00000000 0.00000000 0.00000000 15.00000000 0.00000000 0.00000000 0.00000000 15.00000000" energy_frozen_part=0.00000000 Properties=species:S:1:pos:R:3:velocities:R:3:Z:I:1
H        11.53079034       1.71749118      11.74745756         0.00000000       0.00000000       0.00000000          1
H         7.22457190       5.35435551      14.95578663         0.00000000       0.00000000       0.00000000          1
H        11.56823798      13.39413493       9.92319575         0.00000000       0.00000000       0.00000000          1
H         3.00572717       1.20499988       3.90830457         0.00000000       0.00000000       0.00000000          1
H         5.24639545       2.75815100       5.42264170         0.00000000       0.00000000       0.00000000          1
H        11.27727471       2.57305865       1.58043028         0.00000000       0.00000000       0.00000000          1
6
pbc=[F, F, F] list_num_par=6 energy=-0.08647419 iter=189 frozen=false Lattice="15.00000000 0.00000000 0.00000000 0.00000000 15.00000000 0.00000000 0.00000000 0.00000000 15.00000000" energy_frozen_part=0.00000000 Properties=species:S:1:pos:R:3:velocities:R:3:Z:I:1
H         4.74019161      12.53171028       9.60289723         0.00000000       0.00000000       0.00000000          1
H         2.52184200       7.07173735       1.87059176         0.00000000       0.00000000       0.00000000          1
H         6.23186549       6.43981361       2.33475378         0.00000000       0.00000000       0.00000000          1
H        12.91105293       4.18772044      12.98407361         0.00000000       0.00000000       0.00000000          1
H        12.63344283      10.74202208       1.90725119         0.00000000       0.00000000       0.00000000          1
H         4.05695338      13.77211416      12.65320923         0.00000000       0.00000000       0.00000000          1
6
pbc=[F, F, F] list_num_par=6 energy=-0.09264717 iter=199 frozen=false Lattice="15.00000000 0.00000000 0.00000000 0.00000000 15.00000000 0.00000000 0.00000000 0.00000000 15.00000000" energy_frozen_part=0.00000000 Properties=species:S:1:pos:R:3:velocities:R:3:Z:I:1
H         3.24425155       9.20779761      11.15808800         0.00000000       0.00000000       0.00000000          1
H         1.49223756       8.33668732      13.43543342         0.00000000       0.00000000       0.00000000          1
H        10.12333248       6.55959849       0.50465686         0.00000000       0.00000000       0.00000000          1
H        11.41735252       5.46814202       8.63354649         0.00000000       0.00000000       0.00000000          1
H        12.77501627      11.81537605       0.33659358         0.00000000       0.00000000       0.00000000          1
H         4.73078149       4.43312140       5.65841166         0.00000000       0.00000000       0.00000000          1
6
pbc=[F, F, F] list_num_par=6 energy=-0.09717787 iter=209 frozen=false Lattice="15.00000000 0.00000000 0.00000000 0.00000000 15.00000000 0.00000000 0.00000000 0.00000000 15.00000000" energy_frozen_part=0.00000000 Properties=species:S:1:pos:R:3:velocities:R:3:Z:I:1
H         1.34694462      11.86237347       1.96958346         0.00000000       0.00000000       0.00000000          1
H         8.11941430       6.83138901      13.62259549         0.00000000       0.00000000       0.00000000          1
H        14.07121403       4.55607304       2.26525051         0.00000000       0.00000000       0.00000000          1
H        11.54697578       4.28140766       8.54243100         0.00000000       0.00000000       0.00000000          1
H        13.05333040       6.91292094       4.81426746         0.00000000       0.00000000       0.00000000          1
H         8.08109972      10.11391083      14.71375378         0.00000000       0.00000000       0.00000000          1
6
pbc=[F, F, F] list_num_par=6 energy=-0.10015070 iter=219 frozen=false Lattice="15.00000000 0.00000000 0.00000000 0.00000000 15.00000000 0.00000000 0.00000000 0.00000000 15.00000000" energy_frozen_part=0.00000000 Properties=species:S:1:pos:R:3:velocities:R:3:Z:I:1
H        12.87046669       8.78221596       3.60982950         0.00000000       0.00000000       0.00000000          1
H         1.84780684       3.15484884       7.56746643         0.00000000       0.00000000       0.00000000          1
H        12.59288905       2.25915198       0.06346437         0.00000000       0.00000000       0.00000000          1
H         9.74242662      14.65179054      10.24025305         0.00000000       0.00000000       0.00000000          1
H         2.64821665       5.91128255       7.34621616         0.00000000       0.00000000       0.00000000          1
H        12.89626812       8.95765098      10.82578952         0.00000000       0.00000000       0.00000000          1
6
pbc=[F, F, F] list_num_par=6 energy=-0.10361770 iter=229 frozen=false Lattice="15.00000000 0.00000000 0.00000000 0.00000000 15.00000000 0.00000000 0.00000000 0.00000000 15.00000000" energy_frozen_part=0.00000000 Properties=species:S:1:pos:R:3:velocities:R:3:Z:I:1
H        10.79888629       5.78657558      14.30671306         0.00000000       0.00000000       0.00000000          1
H         9.91058952       3.92753070       9.72961551         0.00000000       0.00000000       0.00000000          1
H        10.18051188      12.83391858      12.50251333         0.00000000       0.00000000       0.00000000          1
H         5.62157947       2.16860916       3.88634698         0.00000000       0.00000000       0.00000000          1
H         7.75083367       1.09222899       2.72059095         0.00000000       0.00000000       0.00000000          1
H        11.20284255       4.39331296       4.79728831         0.00000000       0.00000000       0.00000000          1
6
pbc=[F, F, F] list_num_par=6 energy=-0.10723725 iter=239 frozen=false Lattice="15.00000000 0.00000000 0.00000000 0.00000000 15.00000000 0.00000000 0.00000000 0.00000000 15.00000000" energy_frozen_part=0.00000000 Properties=species:S:1:pos:R:3:velocities:R:3:Z:I:1
H         9.14025536      13.26634374       8.71473431         0.00000000       0.00000000       0.00000000          1
H        12.57396655       3.06066123       9.26591146         0.00000000       0.00000000       0.00000000          1
H         8.29635333       7.79494869       5.38410591         0.00000000       0.00000000       0.00000000          1
H        11.65588165       4.26042892       0.94922239         0.00000000       0.00000000       0.00000000          1
H        12.14720935      10.28925098      10.53784609         0.00000000       0.00000000       0.00000000          1
H        10.88063696       8.46207053       7.33964050         0.00000000       0.00000000       0.00000000          1
6
pbc=[F, F, F] list_num_par=6 energy=-0.11041075 iter=249 frozen=false Lattice="15.00000000 0.00000000 0.00000000 0.00000000 15.00000000 0.00000000 0.00000000 0.00000000 15.00000000" energy_frozen_part=0.00000000 Properties=species:S:1:pos:R:3:velocities:R:3:Z:I:1
H         8.74767493      14.42128125       9.29559241         0.00000000       0.00000000       0.00000000          1
H        13.74202610       1.84567169       5.26278210         0.00000000       0.00000000       0.00000000          1
H         9.87552558       3.10784897       6.58732579         0.00000000       0.00000000       0.00000000          1
H         8.40702316       0.36358300       3.19590634         0.00000000       0.00000000       0.00000000          1
H        11.21419135      13.78211530      11.31273185         0.00000000       0.00000000       0.00000000          1
H         6.76626323      11.35010057       7.16831676         0.00000000       0.00000000       0.00000000          1
6
pbc=[F, F, F] list_num_par=6 energy=-0.11357562 iter=259 frozen=false Lattice="15.00000000 0.00000000 0.00000000 0.00000000 15.00000000 0.00000000 0.00000000 0.00000000 15.00000000" energy_frozen_part=0.00000000 Properties=species:S:1:pos:R:3:velocities:R:3:Z:I:1
H         8.02295679      14.12568576      11.63602507         0.00000000       0.00000000       0.00000000          1
H         9.76003320       0.91685313       3.35279448         0.00000000       0.00000000       0.00000000          1
H        10.75282505       1.71445942       5.82910186         0.00000000       0.00000000       0.00000000          1
H        10.99602695       3.81638961       0.16690638         0.00000000       0.00000000       0.00000000          1
H        14.85777078      12.95940949       7.99370895         0.00000000       0.00000000       0.00000000          1
H         0.83099812       9.88270497      14.98817735         0.00000000       0.00000000       0.00000000          1
6
pbc=[F, F, F] list_num_par=6 energy=-0.11545911 iter=269 frozen=false Lattice="15.00000000 0.00000000 0.00000000 0.00000000 15.00000000 0.00000000 0.00000000 0.00000000 15.00000000" energy_frozen_part=0.00000000 Properties=species:S:1:pos:R:3:velocities:R:3:Z:I:1
H         0.05773296      14.07647873      13.06843743         0.00000000       0.00000000       0.00000000          1
H         9.09979166       7.94366403      13.50176628         0.00000000       0.00000000       0.00000000          1
H        10.29111268       4.61378753      12.69055799         0.00000000       0.00000000       0.00000000          1
H         6.41114287       3.58734766       7.57449973         0.00000000       0.00000000       0.00000000          1
H         1.44054087       3.37578919       6.94440842         0.00000000       0.00000000       0.00000000          1
H         6.57906266       5.87709524      12.00089808         0.00000000       0.00000000       0.00000000          1
6
pbc=[F, F, F] list_num_par=6 energy=-0.11715140 iter=279 frozen=false Lattice="15.00000000 0.00000000 0.00000000 0.00000000 15.00000000 0.00000000 0.00000000 0.00000000 15.00000000" energy_frozen_part=0.00000000 Properties=species:S:1:pos:R:3:velocities:R:3:Z:I:1
H         8.72696287       3.23899890       7.16329103         0.00000000       0.00000000       0.00000000          1
H         0.69124386       5.40972025       3.95635892         0.00000000       0.00000000       0.00000000          1
H         8.14851854       6.66418625       4.68754660         0.00000000       0.00000000       0.00000000          1
H         9.36442213       9.08955923       4.56730237         0.00000000       0.00000000       0.00000000          1
H        11.76213315       3.79351882       0.86199596         0.00000000       0.00000000       0.00000000          1
H         4.30248595       0.51376188       0.22358123         0.00000000       0.00000000       0.00000000          1
6
pbc=[F, F, F] list_num_par=6 energy=-0.12009990 iter=289 frozen=false Lattice="15.00000000 0.00000000 0.00000000 0.00000000 15.00000000 0.00000000 0.00000000 0.00000000 15.00000000" energy_frozen_part=0.00000000 Properties=species:S:1:pos:R:3:velocities:R:3:Z:I:1
H         2.04770571      12.20465035       0.66859380         0.00000000       0.00000000       0.00000000          1
H        14.26267176       4.63811667       8.26900232         0.00000000       0.00000000       0.00000000          1
H        13.05117783       2.11854521       9.19980198         0.00000000       0.00000000       0.00000000          1
H         6.60583109       2.48111750       9.66563132         0.00000000       0.00000000       0.00000000          1
H        13.62837548       3.76006211      12.99700583         0.00000000       0.00000000       0.00000000          1
H         6.85199502      10.80287389      11.93437491         0.00000000       0.00000000       0.00000000          1
6
pbc=[F, F, F] list_num_par=6 energy=-0.12528380 iter=299 frozen=false Lattice="15.00000000 0.00000000 0.00000000 0.00000000 15.00000000 0.00000000 0.00000000 0.00000000 15.00000000" energy_frozen_part=0.00000000 Properties=species:S:1:pos:R:3:velocities:R:3:Z:I:1
H         8.94906992       2.62634652       0.97230460         0.00000000       0.00000000       0.00000000          1
H        10.51211075       4.41367560       8.75258184         0.00000000       0.00000000       0.00000000          1
H         7.99682464      10.25381634       2.20028953         0.00000000       0.00000000       0.00000000          1
H         3.83246981       8.19629954       0.66620704         0.00000000       0.00000000       0.00000000          1
H         9.13323660       7.64759684       2.94154905         0.00000000       0.00000000       0.00000000          1
H         4.60352465       8.39867857       5.58636643         0.00000000       0.00000000       0.00000000          1
6
pbc=[F, F, F] list_num_par=6 energy=-0.13048853 iter=309 frozen=false Lattice="15.00000000 0.00000000 0.00000000 0.00000000 15.00000000 0.00000000 0.00000000 0.00000000 15.00000000" energy_frozen_part=0.00000000 Properties=species:S:1:pos:R:3:velocities:R:3:Z:I:1
H         5.68100457      11.40193005       2.88712892         0.00000000       0.00000000       0.00000000          1
H         3.18092665       4.28901081       2.79824996         0.00000000       0.00000000       0.00000000          1