6
pbc=[F, F, F] list_num_par=6 energy=24.19812540 iter=9 frozen=false Lattice="15.00000000 0.00000000 0.00000000 0.00000000 15.00000000 0.00000000 0.00000000 0.00000000 15.00000000" energy_frozen_part=0.00000000 Properties=species:S:1:pos:R:3:velocities:R:3:Z:I:1
H         9.16510057       3.83735334       9.04158959         0.00000000       0.00000000       0.00000000          1
H         2.55049861       0.69626116       7.87689579         0.00000000       0.00000000       0.00000000          1
H         0.37775111      11.13863775      12.88426632         0.00000000       0.00000000       0.00000000          1
H         9.12324265       4.62841980       2.94677575         0.00000000       0.00000000       0.00000000          1
H        10.78222584       3.30158080       8.60335348         0.00000000       0.00000000       0.00000000          1
H         0.79587445       1.39324149       6.51684799         0.00000000       0.00000000       0.00000000          1
6
pbc=[F, F, F] list_num_par=6 energy=0.84482399 iter=19 frozen=false Lattice="15.00000000 0.00000000 0.00000000 0.00000000 15.00000000 0.00000000 0.00000000 0.00000000 15.00000000" energy_frozen_part=0.00000000 Properties=species:S:1:pos:R:3:velocities:R:3:Z:I:1
H         2.98654642       3.04285329       2.00466497         0.00000000       0.00000000       0.00000000          1
H        13.25034842       3.02345768      12.09025092         0.00000000       0.00000000       0.00000000          1
H        11.05672706       3.18240895      12.27510580         0.00000000       0.00000000       0.00000000          1
H         9.29301801       4.56933518      14.58717048         0.00000000       0.00000000       0.00000000          1
H        10.01679751       9.88452915      11.03646707         0.00000000       0.00000000       0.00000000          1
H        11.62786901      10.36227575      14.97153632         0.00000000       0.00000000       0.00000000          1
6
pbc=[F, F, F] list_num_par=6 energy=-0.00258078 iter=29 frozen=false Lattice="15.00000000 0.00000000 0.00000000 0.00000000 15.00000000 0.00000000 0.00000000 0.00000000 15.00000000" energy_frozen_part=0.00000000 Properties=species:S:1:pos:R:3:velocities:R:3:Z:I:1
H         0.39333822       0.60642210       5.53512937         0.00000000       0.00000000       0.00000000          1
H         7.68205671      11.09395977       0.02358207         0.00000000       0.00000000       0.00000000          1
H         1.58088926       7.93255958       1.64536423         0.00000000       0.00000000       0.00000000          1
H         8.35342848      12.58352628      11.37356595         0.00000000       0.00000000       0.00000000          1
H         0.94671051       2.46388944      11.88958765         0.00000000       0.00000000       0.00000000          1
H         7.56410893       1.63766698       5.52270569         0.00000000       0.00000000       0.00000000          1
6
pbc=[F, F, F] list_num_par=6 energy=-0.00439004 iter=39 frozen=false Lattice="15.00000000 0.00000000 0.00000000 0.00000000 15.00000000 0.00000000 0.00000000 0.00000000 15.00000000" energy_frozen_part=0.00000000 Properties=species:S:1:pos:R:3:velocities:R:3:Z:I:1
H         8.38324353       7.94827056       3.76889904         0.00000000       0.00000000       0.00000000          1
H        11.98188626      13.35110724       1.49600299         0.00000000       0.00000000       0.00000000          1
H         5.47528548       9.01385015      14.89371254         0.00000000       0.00000000       0.00000000          1
H         6.17558067       1.51895466       1.10665255         0.00000000       0.00000000       0.00000000          1
H         5.26467847       0.06774652      11.62311441         0.00000000       0.00000000       0.00000000          1
H        12.03992384       2.82807361       2.15719721         0.00000000       0.00000000       0.00000000          1
6
pbc=[F, F, F] list_num_par=6 energy=-0.00657326 iter=49 frozen=false Lattice="15.00000000 0.00000000 0.00000000 0.00000000 15.00000000 0.00000000 0.00000000 0.00000000 15.00000000" energy_frozen_part=0.00000000 Properties=species:S:1:pos:R:3:velocities:R:3:Z:I:1
H         5.94554509       0.16638344      10.42501919         0.00000000       0.00000000       0.00000000          1
H         9.18567838      14.37139688       7.19036644         0.00000000       0.00000000       0.00000000          1
H        13.20813235      12.88562371       1.71565254         0.00000000       0.00000000       0.00000000          1
H         6.65148585       6.80253676       4.06917476         0.00000000       0.00000000       0.00000000          1
H        12.73219802      13.09565413      10.70550157         0.00000000       0.00000000       0.00000000          1
H         4.11000306       7.36641259      12.79502114         0.00000000       0.00000000       0.00000000          1
6
pbc=[F, F, F] list_num_par=6 energy=-0.01093661 iter=59 frozen=false Lattice="15.00000000 0.00000000 0.00000000 0.00000000 15.00000000 0.00000000 0.00000000 0.00000000 15.00000000" energy_frozen_part=0.00000000 Properties=species:S:1:pos:R:3:velocities:R:3:Z:I:1
H        11.83253058      14.26807176       2.51968204         0.00000000       0.00000000       0.00000000          1
H        14.69351641       5.66439790      11.74987349         0.00000000       0.00000000       0.00000000          1
H         6.38815147       1.53165452       9.12102920         0.00000000       0.00000000       0.00000000          1
H         4.53422976      14.26074458      13.43995452         0.00000000       0.00000000       0.00000000          1
H        11.18546720       9.15013411       0.90831042         0.00000000       0.00000000       0.00000000          1
H         8.05840888      11.78886826       5.09932281         0.00000000       0.00000000       0.00000000          1
6
pbc=[F, F, F] list_num_par=6 energy=-0.01477045 iter=69 frozen=false Lattice="15.00000000 0.00000000 0.00000000 0.00000000 15.00000000 0.00000000 0.00000000 0.00000000 15.00000000" energy_frozen_part=0.00000000 Properties=species:S:1:pos:R:3:velocities:R:3:Z:I:1
H        13.84211103       9.77540742      11.69876476         0.00000000       0.00000000       0.00000000          1
H        10.01226123       9.75099633       4.82513071         0.00000000       0.00000000       0.00000000          1
H        10.14096634       5.12411356       4.97264157         0.00000000       0.00000000       0.00000000          1
H         3.06982505       7.16618169       5.96155557         0.00000000       0.00000000       0.00000000          1
H         2.23858686      14.86962230       8.87816336         0.00000000       0.00000000       0.00000000          1
H        10.96833396      14.12881035      13.25161749         0.00000000       0.00000000       0.00000000          1
6
pbc=[F, F, F] list_num_par=6 energy=-0.01807297 iter=79 frozen=false Lattice="15.00000000 0.00000000 0.00000000 0.00000000 15.00000000 0.00000000 0.00000000 0.00000000 15.00000000" energy_frozen_part=0.00000000 Properties=species:S:1:pos:R:3:velocities:R:3:Z:I:1
H        13.84152834      12.31892219      12.42915512         0.00000000       0.00000000       0.00000000          1
H         3.59557907       7.11782751       0.65531860         0.00000000       0.00000000       0.00000000          1
H         6.84350367      13.81503963       1.87054064         0.00000000       0.00000000       0.00000000          1
H         6.82403921       3.81795581       1.71476152         0.00000000       0.00000000       0.00000000          1
H         7.39865051      10.26371207       5.08319024         0.00000000       0.00000000       0.00000000          1
H         1.06798487       4.09096466       8.94089774         0.00000000       0.00000000       0.00000000          1
6
pbc=[F, F, F] list_num_par=6 energy=-0.02089602 iter=89 frozen=false Lattice="15.00000000 0.00000000 0.00000000 0.00000000 15.00000000 0.00000000 0.00000000 0.00000000 15.00000000" energy_frozen_part=0.00000000 Properties=species:S:1:pos:R:3:velocities:R:3:Z:I:1
H        13.54924504       4.53928067       4.04195917         0.00000000       0.00000000       0.00000000          1
H         8.11252491       1.14155249       3.83801538         0.00000000       0.00000000       0.00000000          1
H         6.89299129       5.84019494       5.16491505         0.00000000       0.00000000       0.00000000          1
H        12.62841431       4.50302127      14.37813109         0.00000000       0.00000000       0.00000000          1
H         0.30422467       1.29252408       3.70026782         0.00000000       0.00000000       0.00000000          1
H         9.03614988       6.02993442       9.23448952         0.00000000       0.00000000       0.00000000          1
6
pbc=[F, F, F] list_num_par=6 energy=-0.02355131 iter=99 frozen=false Lattice="15.00000000 0.00000000 0.00000000 0.00000000 15.00000000 0.00000000 0.00000000 0.00000000 15.00000000" energy_frozen_part=0.00000000 Properties=species:S:1:pos:R:3:velocities:R:3:Z:I:1
H        11.31397036      10.09007128      14.65729803         0.00000000       0.00000000       0.00000000          1
H         6.05388881       6.48455913       3.19278624         0.00000000       0.00000000       0.00000000          1
H        10.36815369       5.80564611       4.08956533         0.00000000       0.00000000       0.00000000          1
H         7.76358417       1.89661710       5.45351692         0.00000000       0.00000000       0.00000000          1
H         0.37788881       9.06288121       7.82357599         0.00000000       0.00000000       0.00000000          1
H         1.19537233       1.37464193      10.12924181         0.00000000       0.00000000       0.00000000          1
6
pbc=[F, F, F] list_num_par=6 energy=-0.02668424 iter=109 frozen=false Lattice="15.00000000 0.00000000 0.00000000 0.00000000 15.00000000 0.00000000 0.00000000 0.00000000 15.00000000" energy_frozen_part=0.00000000 Properties=species:S:1:pos:R:3:velocities:R:3:Z:I:1
H        12.97908513      10.05608213       8.21103024         0.00000000       0.00000000       0.00000000          1
H        12.65148219       2.09597115       6.43060441         0.00000000       0.00000000       0.00000000          1
H         8.33660874       3.44231231       4.41626061         0.00000000       0.00000000       0.00000000          1
H         4.10554678       3.81657650       7.48046670         0.00000000       0.00000000       0.00000000          1
H        13.03045357      14.31866670       8.55665734         0.00000000       0.00000000       0.00000000          1
H         0.12567957      12.86717258      13.50168877         0.00000000       0.00000000       0.00000000          1
6
pbc=[F, F, F] list_num_par=6 energy=-0.02864993 iter=119 frozen=false Lattice="15.00000000 0.00000000 0.00000000 0.00000000 15.00000000 0.00000000 0.00000000 0.00000000 15.00000000" energy_frozen_part=0.00000000 Properties=species:S:1:pos:R:3:velocities:R:3:Z:I:1
H         9.17829104      12.08917675       0.24267616         0.00000000       0.00000000       0.00000000          1
H         1.31502807      13.91944853       4.64085981         0.00000000       0.00000000       0.00000000          1
H         1.48499766      14.35209161       0.81059224         0.00000000       0.00000000       0.00000000          1
H        13.94377722      10.50015624       6.42882266         0.00000000       0.00000000       0.00000000          1
H         5.52352859       3.94387494      11.03197912         0.00000000       0.00000000       0.00000000          1
H         0.40483242       1.93906933       6.69151612         0.00000000       0.00000000       0.00000000          1
6
pbc=[F, F, F] list_num_par=6 energy=-0.03243812 iter=129 frozen=false Lattice="15.00000000 0.00000000 0.00000000 0.00000000 15.00000000 0.00000000 0.00000000 0.00000000 15.00000000" energy_frozen_part=0.00000000 Properties=species:S:1:pos:R:3:velocities:R:3:Z:I:1
H         3.99472774      13.86413541       5.07418232         0.00000000       0.00000000       0.00000000          1
H         0.56583287       8.59785847      14.22103111         0.00000000       0.00000000       0.00000000          1
H        12.05164041      14.03674490      13.36885839         0.00000000       0.00000000       0.00000000          1
H         4.94278165       3.76476726      14.70533734         0.00000000       0.00000000       0.00000000          1
H         3.71542306      13.62846519       7.58526708         0.00000000       0.00000000       0.00000000          1
H        14.18223542       3.03895514       6.45710610         0.00000000       0.00000000       0.00000000          1
6
pbc=[F, F, F] list_num_par=6 energy=-0.03667477 iter=139 frozen=false Lattice="15.00000000 0.00000000 0.00000000 0.00000000 15.00000000 0.00000000 0.00000000 0.00000000 15.00000000" energy_frozen_part=0.00000000 Properties=species:S:1:pos:R:3:velocities:R:3:Z:I:1
H        12.05549323       4.69219998       6.88406248         0.00000000       0.00000000       0.00000000          1
H        12.52363846       7.76268121       4.47016834         0.00000000       0.00000000       0.00000000          1
H         0.02739201       3.69787430       4.63759966         0.00000000       0.00000000       0.00000000          1
H         9.54528812      10.15359111       7.47959330         0.00000000       0.00000000       0.00000000          1
H         5.86924683      13.07119889       3.57147685         0.00000000       0.00000000       0.00000000          1
H         6.02425057       1.60936319       8.80007850         0.00000000       0.00000000       0.00000000          1
6
pbc=[F, F, F] list_num_par=6 energy=-0.03977722 iter=149 frozen=false Lattice="15.00000000 0.00000000 0.00000000 0.00000000 15.00000000 0.00000000 0.00000000 0.00000000 15.00000000" energy_frozen_part=0.00000000 Properties=species:S:1:pos:R:3:velocities:R:3:Z:I:1
H         4.92177570      13.48035635       2.76772529         0.00000000       0.00000000       0.00000000          1
H         2.79886627       3.22970534       0.35582131         0.00000000       0.00000000       0.00000000          1
H        11.32783959      11.07284581      12.06768515         0.00000000       0.00000000       0.00000000          1
H        14.01428304       6.40180534       0.27183069         0.00000000       0.00000000       0.00000000          1
H         1.41552515       9.63677070       7.35666259         0.00000000       0.00000000       0.00000000          1
H        14.14536815      10.37034032       9.91744454         0.00000000       0.00000000       0.00000000          1
6
pbc=[F, F, F] list_num_par=6 energy=-0.04419689 iter=159 frozen=false Lattice="15.00000000 0.00000000 0.00000000 0.00000000 15.00000000 0.00000000 0.00000000 0.00000000 15.00000000" energy_frozen_part=0.00000000 Properties=species:S:1:pos:R:3:velocities:R:3:Z:I:1
H         4.91888240       0.70149426       9.98469453         0.00000000       0.00000000       0.00000000          1
H         4.17179340      13.11429577      10.33924180         0.00000000       0.00000000       0.00000000          1
H        13.15851885       9.45875624      10.06846922         0.00000000       0.00000000       0.00000000          1
H         3.37910892       4.29985465      10.35210244         0.00000000       0.00000000       0.00000000          1
H         0.90059732       1.17480192       7.51679908         0.00000000       0.00000000       0.00000000          1
H         5.59118603       5.87823607       5.31439231         0.00000000       0.00000000       0.00000000          1
6
pbc=[F, F, F] list_num_par=6 energy=-0.04831129 iter=169 frozen=false Lattice="15.00000000 0.00000000 0.00000000 0.00000000 15.00000000 0.00000000 0.00000000 0.00000000 15.00000000" energy_frozen_part=0.00000000 Properties=species:S:1:pos:R:3:velocities:R:3:Z:I:1
H         7.24007936      14.67394616      13.50458638         0.00000000       0.00000000       0.00000000          1
H         4.59095226      11.29085420       1.06132589         0.00000000       0.00000000       0.00000000          1
H         2.55689195       9.66370788       8.86449993         0.00000000       0.00000000       0.00000000          1
H        11.80713087       7.72011186       7.34369786         0.00000000       0.00000000       0.00000000          1
H         3.05217892       7.06051446       6.40796810         0.00000000       0.00000000       0.00000000          1
H         6.19178669       3.70815897       8.20935775         0.00000000       0.00000000       0.00000000          1
6
pbc=[F, F, F] list_num_par=6 energy=-0.05176299 iter=179 frozen=false Lattice="15.00000000 0.00000000 0.00000000 0.00000000 15.00000000 0.00000000 0.00000000 0.00000000 15.00000000" energy_frozen_part=0.00000000 Properties=species:S:1:pos:R:3:velocities:R:3:Z:I:1
H        10.68024629       4.59461420       3.86335037         0.00000000       0.00000000       0.00000000          1
H        13.43060979       0.16879399       0.36905940         0.00000000       0.00000000       0.00000000          1
H         5.94376959       9.22753128      12.07024049         0.00000000       0.00000000       0.00000000          1
H         9.80132779      10.08841282       1.92959875         0.00000000       0.00000000       0.00000000          1
H         4.48241611       5.11675914       8.40902333         0.00000000       0.00000000       0.00000000          1
H         7.47229951       9.40932825      14.11292282         0.00000000       0.00000000       0.00000000          1
6
pbc=[F, F, F] list_num_par=6 energy=-0.05717934 iter=189 frozen=false Lattice="15.00000000 0.00000000 0.00000000 0.00000000 15.00000000 0.00000000 0.00000000 0.00000000 15.00000000" energy_frozen_part=0.00000000 Properties=species:S:1:pos:R:3:velocities:R:3:Z:I:1
H        14.11621264      13.69241668      11.43221411         0.00000000       0.00000000       0.00000000          1
H         3.07020877      11.42720015       4.45509886         0.00000000       0.00000000       0.00000000          1
H         3.68823369       5.68391958      11.68867492         0.00000000       0.00000000       0.00000000          1
H         9.53038783       4.74365012       3.06858025         0.00000000       0.00000000       0.00000000          1
H        12.07783005       6.38915570       4.60611585         0.00000000       0.00000000       0.00000000          1
H         9.55348956      10.59001083      11.21190205         0.00000000       0.00000000       0.00000000          1
6
pbc=[F, F, F] list_num_par=6 energy=-0.06128246 iter=199 frozen=false Lattice="15.00000000 0.00000000 0.00000000 0.00000000 15.00000000 0.00000000 0.00000000 0.00000000 15.00000000" energy_frozen_part=0.00000000 Properties=species:S:1:pos:R:3:velocities:R:3:Z:I:1
H         0.90882755      10.50561447      12.42975144         0.00000000       0.00000000       0.00000000          1
H        10.00061833       0.01115908       2.82755035         0.00000000       0.00000000       0.00000000          1
H         9.10456243       9.22294541      14.25370745         0.00000000       0.00000000       0.00000000          1
H         0.64234239      10.73751961       8.24295155         0.00000000       0.00000000       0.00000000          1
H         6.11366822       7.36052042      13.62768604         0.00000000       0.00000000       0.00000000          1
H         4.32286934      10.49707134       3.13147169         0.00000000       0.00000000       0.00000000          1
6
pbc=[F, F, F] list_num_par=6 energy=-0.06596637 iter=209 frozen=false Lattice="15.00000000 0.00000000 0.00000000 0.00000000 15.00000000 0.00000000 0.00000000 0.00000000 15.00000000" energy_frozen_part=0.00000000 Properties=species:S:1:pos:R:3:velocities:R:3:Z:I:1
H         2.82161083       1.30000543       4.27685640         0.00000000       0.00000000       0.00000000          1
H         3.61715154       5.03296502       6.50258834         0.00000000       0.00000000       0.00000000          1
H         8.07331470       2.15035972       2.95314627         0.00000000       0.00000000       0.00000000          1
H         4.81373319      14.63471409      13.33739112         0.00000000       0.00000000       0.00000000          1
H         7.08115235       9.96078561       1.84587998         0.00000000       0.00000000       0.00000000          1
H         4.81093598       7.14651961       2.45548861         0.00000000       0.00000000       0.00000000          1
6
pbc=[F, F, F] list_num_par=6 energy=-0.07193222 iter=219 frozen=false Lattice="15.00000000 0.00000000 0.00000000 0.00000000 15.00000000 0.00000000 0.00000000 0.00000000 15.00000000" energy_frozen_part=0.00000000 Properties=species:S:1:pos:R:3:velocities:R:3:Z:I:1
H         8.14486627       3.75242353       2.03730201         0.00000000       0.00000000       0.00000000          1
H        13.22578943       1.03435028      10.19612707         0.00000000       0.00000000       0.00000000          1
H         2.58061984       4.27794421       3.89009000         0.00000000       0.00000000       0.00000000          1
H         4.48824874       1.44486474       6.82550380         0.00000000       0.00000000       0.00000000          1
H        11.58582515       4.98215887      14.43360646         0.00000000       0.00000000       0.00000000          1
H        11.01418232       4.05378931       0.28688398         0.00000000       0.00000000       0.00000000          1
6
pbc=[F, F, F] list_num_par=6 energy=-0.07815618 iter=229 frozen=false Lattice="15.00000000 0.00000000 0.00000000 0.00000000 15.00000000 0.00000000 0.00000000 0.00000000 15.00000000" energy_frozen_part=0.00000000 Properties=species:S:1:pos:R:3:velocities:R:3:Z:I:1
H         1.36785479       6.59273030       2.37521261         0.00000000       0.00000000       0.00000000          1
H        13.70093642       2.95065782       2.32552975         0.00000000       0.00000000       0.00000000          1
H         0.25466988       2.76623587       3.46606468         0.00000000       0.00000000       0.00000000          1
H        14.55971767       4.48076190       5.17370100         0.00000000       0.00000000       0.00000000          1
H         5.74987854       4.98673693      10.84376000         0.00000000       0.00000000       0.00000000          1
H         7.94122127       0.43668695       2.95311922         0.00000000       0.00000000       0.00000000          1
6
pbc=[F, F, F] list_num_par=6 energy=-0.08132378 iter=239 frozen=false Lattice="15.00000000 0.00000000 0.00000000 0.00000000 15.00000000 0.00000000 0.00000000 0.00000000 15.00000000" energy_frozen_part=0.00000000 Properties=species:S:1:pos:R:3:velocities:R:3:Z:I:1
H         2.79090313       1.67397117      12.40445373         0.00000000       0.00000000       0.00000000          1
H         0.65311894       3.76869596      13.25370001         0.00000000       0.00000000       0.00000000          1
H        11.29696298       0.25879178       5.19921141         0.00000000       0.00000000       0.00000000          1
H         4.86784033      14.23276140      10.52251795         0.00000000       0.00000000       0.00000000          1
H         4.15979399       9.45632618       5.74069351         0.00000000       0.00000000       0.00000000          1
H         6.98074918      11.63562198       0.81928395         0.00000000       0.00000000       0.00000000          1
6
pbc=[F, F, F] list_num_par=6 energy=-0.08734742 iter=249 frozen=false Lattice="15.00000000 0.00000000 0.00000000 0.00000000 15.00000000 0.00000000 0.00000000 0.00000000 15.00000000" energy_frozen_part=0.00000000 Properties=species:S:1:pos:R:3:velocities:R:3:Z:I:1
H         1.79985593       3.27381036      10.63706490         0.00000000       0.00000000       0.00000000          1
H        12.04285678      10.19487103       8.43988984         0.00000000       0.00000000       0.00000000          1
H        13.23331964      14.76537065       8.71827471         0.00000000       0.00000000       0.00000000          1
H         7.08512500       1.00650070       4.99796552         0.00000000       0.00000000       0.00000000          1
H        11.44204356       7.27061579       9.34348427         0.00000000       0.00000000       0.00000000          1
H         6.40378574      12.12131606       3.01603380         0.00000000       0.00000000       0.00000000          1
6
pbc=[F, F, F] list_num_par=6 energy=-0.09172933 iter=259 frozen=false Lattice="15.00000000 0.00000000 0.00000000 0.00000000 15.00000000 0.00000000 0.00000000 0.00000000 15.00000000" energy_frozen_part=0.00000000 Properties=species:S:1:pos:R:3:velocities:R:3:Z:I:1
H        11.88404214      10.84413094       0.36869266         0.00000000       0.00000000       0.00000000          1
H         0.40273046      10.29381179       4.78027068         0.00000000       0.00000000       0.00000000          1
H         3.05799949      10.42566093       3.34916309         0.00000000       0.00000000       0.00000000          1
H        12.42811578      12.28913267       5.50620841         0.00000000       0.00000000       0.00000000          1
H        10.24284007       3.62226501      13.85178946         0.00000000       0.00000000       0.00000000          1
H         5.61407342       1.07273860       8.49071129         0.00000000       0.00000000       0.00000000          1
6
pbc=[F, F, F] list_num_par=6 energy=-0.09525035 iter=269 frozen=false Lattice="15.00000000 0.00000000 0.00000000 0.00000000 15.00000000 0.00000000 0.00000000 0.00000000 15.00000000" energy_frozen_part=0.00000000 Properties=species:S:1:pos:R:3:velocities:R:3:Z:I:1
H         3.00215147      14.70509875       1.25221408         0.00000000       0.00000000       0.00000000          1
H        13.70097217       1.27619133       4.86655637         0.00000000       0.00000000       0.00000000          1
H         6.90886681      11.07244682       4.33492523         0.00000000       0.00000000       0.00000000          1
H        14.37960294       4.30561452       5.81205426         0.00000000       0.00000000       0.00000000          1
H        10.51528279      10.56167695       6.68143162         0.00000000       0.00000000       0.00000000          1
H         9.43897250       2.47737070       3.63372724         0.00000000       0.00000000       0.00000000          1
6
pbc=[F, F, F] list_num_par=6 energy=-0.09717533 iter=279 frozen=false Lattice="15.00000000 0.00000000 0.00000000 0.00000000 15.00000000 0.00000000 0.00000000 0.00000000 15.00000000" energy_frozen_part=0.00000000 Properties=species:S:1:pos:R:3:velocities:R:3:Z:I:1
H        14.66523431       2.26589167      12.34669047         0.00000000       0.00000000       0.00000000          1
H         4.70963844       7.28860498       8.14909037         0.00000000       0.00000000       0.00000000          1
H        13.13743537       5.63571819      12.98528439         0.00000000       0.00000000       0.00000000          1
H        11.07844929      10.02815113       0.25676176         0.00000000       0.00000000       0.00000000          1
H        13.89396223      11.52028298       0.93873599         0.00000000       0.00000000       0.00000000          1
H         2.08853510       2.52062577       3.46226543         0.00000000       0.00000000       0.00000000          1
6
pbc=[F, F, F] list_num_par=6 energy=-0.10043699 iter=289 frozen=false Lattice="15.00000000 0.00000000 0.00000000 0.00000000 15.00000000 0.00000000 0.00000000 0.00000000 15.00000000" energy_frozen_part=0.00000000 Properties=species:S:1:pos:R:3:velocities:R:3:Z:I:1
H         1.40829696       5.12624279       5.20662712         0.00000000       0.00000000       0.00000000          1
H         2.90211495       3.61584907       7.30880245         0.00000000       0.00000000       0.00000000          1
H         8.37978894       4.33121127       7.27054361         0.00000000       0.00000000       0.00000000          1
H         0.07129394      12.11465994      13.55364000         0.00000000       0.00000000       0.00000000          1
H         4.74624152      10.11366658       7.86024263         0.00000000       0.00000000       0.00000000          1
H         2.91782129       2.30940461       0.40280267         0.00000000       0.00000000       0.00000000          1
6
pbc=[F, F, F] list_num_par=6 energy=-0.10161295 iter=299 frozen=false Lattice="15.00000000 0.00000000 0.00000000 0.00000000 15.00000000 0.00000000 0.00000000 0.00000000 15.00000000" energy_frozen_part=0.00000000 Properties=species:S:1:pos:R:3:velocities:R:3:Z:I:1
H        10.53528343       0.59819468      14.46256356         0.00000000       0.00000000       0.00000000          1
H         0.98326036      11.87318365       9.95781175         0.00000000       0.00000000       0.00000000          1
H         4.99943350       4.52358322       9.37372052         0.00000000       0.00000000       0.00000000          1
H         8.38065730       1.28851669       3.28385340         0.00000000       0.00000000       0.00000000          1
H        11.41913931       1.99235544      12.21464289         0.00000000       0.00000000       0.00000000          1
H         1.80534429       5.30080647       2.12093872         0.00000000       0.00000000       0.00000000          1
6
pbc=[F, F, F] list_num_par=6 energy=-0.10316881 iter=309 frozen=false Lattice="15.00000000 0.00000000 0.00000000 0.00000000 15.00000000 0.00000000 0.00000000 0.00000000 15.00000000" energy_frozen_part=0.00000000 Properties=species:S:1:pos:R:3:velocities:R:3:Z:I:1
H         0.01151969       4.69262238       4.66987150         0.00000000       0.00000000       0.00000000          1
H         2.03834151       2.90934099       5.05899042         0.00000000       0.00000000       0.00000000          1