6
pbc=[F, F, F] list_num_par=6 frozen=false iter=20000 energy=-1.26974174 Lattice="15.00000000 0.00000000 0.00000000 0.00000000 15.00000000 0.00000000 0.00000000 0.00000000 15.00000000" energy_frozen_part=0.00000000 Properties=species:S:1:pos:R:3:velocities:R:3:Z:I:1
H         7.29962361       7.92717121      10.86687474         0.00000000       0.00000000       0.00000000          1
H         8.56836326       6.07275856      12.52691408         0.00000000       0.00000000       0.00000000          1
H         7.54165990       6.16464554       8.71299836         0.00000000       0.00000000       0.00000000          1
H         8.81039932       4.31023292      10.37303250         0.00000000       0.00000000       0.00000000          1
H         9.80658904       6.91209907      10.16755337         0.00000000       0.00000000       0.00000000          1
H         6.30344236       5.32530767      11.07236114         0.00000000       0.00000000       0.00000000          1
6
pbc=[F, F, F] list_num_par=6 frozen=false iter=20000 energy=-1.26974174 Lattice="15.00000000 0.00000000 0.00000000 0.00000000 15.00000000 0.00000000 0.00000000 0.00000000 15.00000000" energy_frozen_part=0.00000000 Properties=species:S:1:pos:R:3:velocities:R:3:Z:I:1
H         7.68497388       1.85447989      12.23083473         0.00000000       0.00000000       0.00000000          1
H         6.55459358       3.99467285      13.62586381         0.00000000       0.00000000       0.00000000          1
H         8.47698815       5.71194317      12.54898663         0.00000000       0.00000000       0.00000000          1
H         6.89124704       4.15390226      10.85718114         0.00000000       0.00000000       0.00000000          1
H         9.27071324       3.41253029      13.92264202         0.00000000       0.00000000       0.00000000          1
H         9.60736800       3.57175650      11.15395943         0.00000000       0.00000000       0.00000000          1
6
pbc=[F, F, F] list_num_par=6 frozen=false iter=20000 energy=-1.26974174 Lattice="15.00000000 0.00000000 0.00000000 0.00000000 15.00000000 0.00000000 0.00000000 0.00000000 15.00000000" energy_frozen_part=0.00000000 Properties=species:S:1:pos:R:3:velocities:R:3:Z:I:1
H         7.69094646       1.80266970      12.18746413         0.00000000       0.00000000       0.00000000          1
H         6.43573115       3.87030568      13.58517120         0.00000000       0.00000000       0.00000000          1
H         8.36012264       5.66836122      12.65351576         0.00000000       0.00000000       0.00000000          1
H         6.90183353       4.12033498      10.84208696         0.00000000       0.00000000       0.00000000          1
H         9.14923906       3.35070547      13.99888336         0.00000000       0.00000000       0.00000000          1
H         9.61534441       3.60072742      11.25580182         0.00000000       0.00000000       0.00000000          1
6
pbc=[F, F, F] list_num_par=6 frozen=false iter=20000 energy=-1.26974174 Lattice="15.00000000 0.00000000 0.00000000 0.00000000 15.00000000 0.00000000 0.00000000 0.00000000 15.00000000" energy_frozen_part=0.00000000 Properties=species:S:1:pos:R:3:velocities:R:3:Z:I:1
H         7.69079241       1.80276854      12.18720395         0.00000000       0.00000000       0.00000000          1
H         6.43556767       3.87020930      13.58519418         0.00000000       0.00000000       0.00000000          1
H         8.35998760       5.66838873      12.65382862         0.00000000       0.00000000       0.00000000          1
H         6.90171617       4.12062165      10.84214728         0.00000000       0.00000000       0.00000000          1
H         9.14906176       3.35052313      13.99887896         0.00000000       0.00000000       0.00000000          1
H         9.61521252       3.60094552      11.25583646         0.00000000       0.00000000       0.00000000          1
6
pbc=[F, F, F] list_num_par=6 frozen=false iter=20000 energy=-1.26974174 Lattice="15.00000000 0.00000000 0.00000000 0.00000000 15.00000000 0.00000000 0.00000000 0.00000000 15.00000000" energy_frozen_part=0.00000000 Properties=species:S:1:pos:R:3:velocities:R:3:Z:I:1
H         7.69076811       1.80276669      12.18722212         0.00000000       0.00000000       0.00000000          1
H         6.43558258       3.87034295      13.58506355         0.00000000       0.00000000       0.00000000          1
H         8.36007498       5.66840616      12.65361199         0.00000000       0.00000000       0.00000000          1
H         6.90177976       4.12056839      10.84201823         0.00000000       0.00000000       0.00000000          1
H         9.14905407       3.35060060      13.99882540         0.00000000       0.00000000       0.00000000          1
H         9.61525683       3.60083172      11.25577971         0.00000000       0.00000000       0.00000000          1
6
pbc=[F, F, F] list_num_par=6 frozen=false iter=20000 energy=-1.26974174 Lattice="15.00000000 0.00000000 0.00000000 0.00000000 15.00000000 0.00000000 0.00000000 0.00000000 15.00000000" energy_frozen_part=0.00000000 Properties=species:S:1:pos:R:3:velocities:R:3:Z:I:1
H         7.69095699       1.80269580      12.18755783         0.00000000       0.00000000       0.00000000          1
H         6.43581321       3.87041655      13.58520644         0.00000000       0.00000000       0.00000000          1
H         8.36026274       5.66837803      12.65349003         0.00000000       0.00000000       0.00000000          1
H         6.90191896       4.12033872      10.84210489         0.00000000       0.00000000       0.00000000          1
H         9.14930224       3.35073730      13.99893126         0.00000000       0.00000000       0.00000000          1
H         9.61541168       3.60066083      11.25584136         0.00000000       0.00000000       0.00000000          1
6
pbc=[F, F, F] list_num_par=6 frozen=false iter=20000 energy=-1.26974174 Lattice="15.00000000 0.00000000 0.00000000 0.00000000 15.00000000 0.00000000 0.00000000 0.00000000 15.00000000" energy_frozen_part=0.00000000 Properties=species:S:1:pos:R:3:velocities:R:3:Z:I:1
H         7.69096047       1.80268077      12.18756194         0.00000000       0.00000000       0.00000000          1
H         6.43580105       3.87041480      13.58517924         0.00000000       0.00000000       0.00000000          1
H         8.36024825       5.66836885      12.65345331         0.00000000       0.00000000       0.00000000          1
H         6.90193062       4.12030327      10.84208336         0.00000000       0.00000000       0.00000000          1
H         9.14929129       3.35074489      13.99894027         0.00000000       0.00000000       0.00000000          1
H         9.61541998       3.60063403      11.25584739         0.00000000       0.00000000       0.00000000          1
6
pbc=[F, F, F] list_num_par=6 frozen=false iter=20000 energy=-1.26974174 Lattice="15.00000000 0.00000000 0.00000000 0.00000000 15.00000000 0.00000000 0.00000000 0.00000000 15.00000000" energy_frozen_part=0.00000000 Properties=species:S:1:pos:R:3:velocities:R:3:Z:I:1
H         7.29963206       7.92720180      10.86691999         0.00000000       0.00000000       0.00000000          1
H         8.56830002       6.07273614      12.52695073         0.00000000       0.00000000       0.00000000          1
H         7.54174950       6.16472993       8.71299310         0.00000000       0.00000000       0.00000000          1
H         8.81041421       4.31027138      10.37303560         0.00000000       0.00000000       0.00000000          1
H         9.80661172       6.91213559      10.16765395         0.00000000       0.00000000       0.00000000          1
H         6.30343134       5.32533873      11.07228577         0.00000000       0.00000000       0.00000000          1
6
pbc=[F, F, F] list_num_par=6 frozen=false iter=20000 energy=-1.26974174 Lattice="15.00000000 0.00000000 0.00000000 0.00000000 15.00000000 0.00000000 0.00000000 0.00000000 15.00000000" energy_frozen_part=0.00000000 Properties=species:S:1:pos:R:3:velocities:R:3:Z:I:1
H         7.69101767       1.80267267      12.18743326         0.00000000       0.00000000       0.00000000          1
H         6.43573494       3.87028346      13.58512975         0.00000000       0.00000000       0.00000000          1
H         8.36011859       5.66838079      12.65351976         0.00000000       0.00000000       0.00000000          1
H         6.90187870       4.12033276      10.84205826         0.00000000       0.00000000       0.00000000          1
H         9.14925015       3.35072320      13.99889091         0.00000000       0.00000000       0.00000000          1
H         9.61539167       3.60076861      11.25581432         0.00000000       0.00000000       0.00000000          1
6
pbc=[F, F, F] list_num_par=6 frozen=false iter=20000 energy=-1.26974174 Lattice="15.00000000 0.00000000 0.00000000 0.00000000 15.00000000 0.00000000 0.00000000 0.00000000 15.00000000" energy_frozen_part=0.00000000 Properties=species:S:1:pos:R:3:velocities:R:3:Z:I:1
H         7.69068898       1.80272306      12.18723012         0.00000000       0.00000000       0.00000000          1
H         6.43556337       3.87024935      13.58519655         0.00000000       0.00000000       0.00000000          1
H         8.36006396       5.66832646      12.65379134         0.00000000       0.00000000       0.00000000          1
H         6.90171548       4.12060314      10.84214856         0.00000000       0.00000000       0.00000000          1
H         9.14903513       3.35044355      13.99887632         0.00000000       0.00000000       0.00000000          1
H         9.61518712       3.60080413      11.25583555         0.00000000       0.00000000       0.00000000          1
6
pbc=[F, F, F] list_num_par=6 frozen=false iter=20000 energy=-1.26974174 Lattice="15.00000000 0.00000000 0.00000000 0.00000000 15.00000000 0.00000000 0.00000000 0.00000000 15.00000000" energy_frozen_part=0.00000000 Properties=species:S:1:pos:R:3:velocities:R:3:Z:I:1
H         7.68492337       1.85447544      12.23082904         0.00000000       0.00000000       0.00000000          1
H         6.55457897       3.99465588      13.62589799         0.00000000       0.00000000       0.00000000          1
H         8.47697378       5.71193537      12.54904676         0.00000000       0.00000000       0.00000000          1
H         6.89121207       4.15392990      10.85721577         0.00000000       0.00000000       0.00000000          1
H         9.27069358       3.41248175      13.92265401         0.00000000       0.00000000       0.00000000          1
H         9.60732295       3.57175315      11.15397146         0.00000000       0.00000000       0.00000000          1
6
pbc=[F, F, F] list_num_par=6 frozen=false iter=20000 energy=-1.26974174 Lattice="15.00000000 0.00000000 0.00000000 0.00000000 15.00000000 0.00000000 0.00000000 0.00000000 15.00000000" energy_frozen_part=0.00000000 Properties=species:S:1:pos:R:3:velocities:R:3:Z:I:1
H         7.69095422       1.80268081      12.18761847         0.00000000       0.00000000       0.00000000          1
H         6.43580376       3.87043845      13.58520956         0.00000000       0.00000000       0.00000000          1
H         8.36024613       5.66837785      12.65344640         0.00000000       0.00000000       0.00000000          1
H         6.90190577       4.12028404      10.84210827         0.00000000       0.00000000       0.00000000          1
H         9.14930200       3.35077166      13.99895722         0.00000000       0.00000000       0.00000000          1
H         9.61540448       3.60062006      11.25585661         0.00000000       0.00000000       0.00000000          1
6
pbc=[F, F, F] list_num_par=6 frozen=false iter=20000 energy=-1.26974174 Lattice="15.00000000 0.00000000 0.00000000 0.00000000 15.00000000 0.00000000 0.00000000 0.00000000 15.00000000" energy_frozen_part=0.00000000 Properties=species:S:1:pos:R:3:velocities:R:3:Z:I:1
H         7.29967887       7.92723415      10.86691578         0.00000000       0.00000000       0.00000000          1
H         8.56833027       6.07276592      12.52695384         0.00000000       0.00000000       0.00000000          1
H         7.54175048       6.16474282       8.71300061         0.00000000       0.00000000       0.00000000          1
H         8.81040173       4.31027563      10.37305559         0.00000000       0.00000000       0.00000000          1
H         9.80663934       6.91212092      10.16764228         0.00000000       0.00000000       0.00000000          1
H         6.30343923       5.32538538      11.07231208         0.00000000       0.00000000       0.00000000          1
6
pbc=[F, F, F] list_num_par=6 frozen=false iter=20000 energy=-1.26974174 Lattice="15.00000000 0.00000000 0.00000000 0.00000000 15.00000000 0.00000000 0.00000000 0.00000000 15.00000000" energy_frozen_part=0.00000000 Properties=species:S:1:pos:R:3:velocities:R:3:Z:I:1
H         7.69091545       1.80269360      12.18748635         0.00000000       0.00000000       0.00000000          1
H         6.43571202       3.87036732      13.58515558         0.00000000       0.00000000       0.00000000          1
H         8.36017157       5.66837046      12.65354318         0.00000000       0.00000000       0.00000000          1
H         6.90188880       4.12036029      10.84208554         0.00000000       0.00000000       0.00000000          1
H         9.14919469       3.35069788      13.99895019         0.00000000       0.00000000       0.00000000          1
H         9.61537468       3.60070403      11.25587535         0.00000000       0.00000000       0.00000000          1
6
pbc=[F, F, F] list_num_par=6 frozen=false iter=20000 energy=-1.26974174 Lattice="15.00000000 0.00000000 0.00000000 0.00000000 15.00000000 0.00000000 0.00000000 0.00000000 15.00000000" energy_frozen_part=0.00000000 Properties=species:S:1:pos:R:3:velocities:R:3:Z:I:1
H         7.69067707       1.80273682      12.18719810         0.00000000       0.00000000       0.00000000          1
H         6.43556112       3.87024119      13.58519019         0.00000000       0.00000000       0.00000000          1
H         8.36007818       5.66832547      12.65381501         0.00000000       0.00000000       0.00000000          1
H         6.90171816       4.12063475      10.84214901         0.00000000       0.00000000       0.00000000          1
H         9.14903202       3.35042715      13.99886466         0.00000000       0.00000000       0.00000000          1
H         9.61519292       3.60081227      11.25582438         0.00000000       0.00000000       0.00000000          1
6
pbc=[F, F, F] list_num_par=6 frozen=false iter=20000 energy=-1.26974174 Lattice="15.00000000 0.00000000 0.00000000 0.00000000 15.00000000 0.00000000 0.00000000 0.00000000 15.00000000" energy_frozen_part=0.00000000 Properties=species:S:1:pos:R:3:velocities:R:3:Z:I:1
H         7.69079660       1.80275153      12.18718573         0.00000000       0.00000000       0.00000000          1
H         6.43554701       3.87018417      13.58517331         0.00000000       0.00000000       0.00000000          1
H         8.35998219       5.66837117      12.65382955         0.00000000       0.00000000       0.00000000          1
H         6.90172465       4.12061554      10.84214248         0.00000000       0.00000000       0.00000000          1
H         9.14904538       3.35050659      13.99887525         0.00000000       0.00000000       0.00000000          1
H         9.61521969       3.60093674      11.25583648         0.00000000       0.00000000       0.00000000          1
6
pbc=[F, F, F] list_num_par=6 frozen=false iter=20000 energy=-1.26974174 Lattice="15.00000000 0.00000000 0.00000000 0.00000000 15.00000000 0.00000000 0.00000000 0.00000000 15.00000000" energy_frozen_part=0.00000000 Properties=species:S:1:pos:R:3:velocities:R:3:Z:I:1
H         7.68492936       1.85450252      12.23082842         0.00000000       0.00000000       0.00000000          1
H         6.55462056       3.99468477      13.62594643         0.00000000       0.00000000       0.00000000          1
H         8.47702784       5.71194548      12.54907903         0.00000000       0.00000000       0.00000000          1
H         6.89122243       4.15398460      10.85726268         0.00000000       0.00000000       0.00000000          1
H         9.27073404       3.41246356      13.92264937         0.00000000       0.00000000       0.00000000          1
H         9.60734267       3.57176958      11.15396657         0.00000000       0.00000000       0.00000000          1
6
pbc=[F, F, F] list_num_par=6 frozen=false iter=20000 energy=-1.26974174 Lattice="15.00000000 0.00000000 0.00000000 0.00000000 15.00000000 0.00000000 0.00000000 0.00000000 15.00000000" energy_frozen_part=0.00000000 Properties=species:S:1:pos:R:3:velocities:R:3:Z:I:1
H         7.69078019       1.80276457      12.18723122         0.00000000       0.00000000       0.00000000          1
H         6.43555678       3.87021827      13.58520134         0.00000000       0.00000000       0.00000000          1
H         8.35998172       5.66838521      12.65381748         0.00000000       0.00000000       0.00000000          1
H         6.90171540       4.12061652      10.84215417         0.00000000       0.00000000       0.00000000          1
H         9.14905404       3.35053252      13.99889397         0.00000000       0.00000000       0.00000000          1
H         9.61521138       3.60092218      11.25585761         0.00000000       0.00000000       0.00000000          1
6
pbc=[F, F, F] list_num_par=6 frozen=false iter=20000 energy=-1.26974174 Lattice="15.00000000 0.00000000 0.00000000 0.00000000 15.00000000 0.00000000 0.00000000 0.00000000 15.00000000" energy_frozen_part=0.00000000 Properties=species:S:1:pos:R:3:velocities:R:3:Z:I:1
H         7.69068704       1.80273821      12.18719523         0.00000000       0.00000000       0.00000000          1
H         6.43555272       3.87024598      13.58517185         0.00000000       0.00000000       0.00000000          1
H         8.36004705       5.66833525      12.65379923         0.00000000       0.00000000       0.00000000          1
H         6.90170947       4.12062560      10.84213085         0.00000000       0.00000000       0.00000000          1
H         9.14902375       3.35044205      13.99885621         0.00000000       0.00000000       0.00000000          1
H         9.61518121       3.60083110      11.25581758         0.00000000       0.00000000       0.00000000          1
6
pbc=[F, F, F] list_num_par=6 frozen=false iter=20000 energy=-1.26974174 Lattice="15.00000000 0.00000000 0.00000000 0.00000000 15.00000000 0.00000000 0.00000000 0.00000000 15.00000000" energy_frozen_part=0.00000000 Properties=species:S:1:pos:R:3:velocities:R:3:Z:I:1
H         7.68492623       1.85448986      12.23084118         0.00000000       0.00000000       0.00000000          1
H         6.55459103       3.99467111      13.62591255         0.00000000       0.00000000       0.00000000          1
H         8.47699209       5.71193985      12.54903905         0.00000000       0.00000000       0.00000000          1
H         6.89120777       4.15394281      10.85723410         0.00000000       0.00000000       0.00000000          1
H         9.27070251       3.41248161      13.92265193         0.00000000       0.00000000       0.00000000          1
H         9.60732590       3.57175727      11.15396541         0.00000000       0.00000000       0.00000000          1
6
pbc=[F, F, F] list_num_par=6 frozen=false iter=20000 energy=-1.26974174 Lattice="15.00000000 0.00000000 0.00000000 0.00000000 15.00000000 0.00000000 0.00000000 0.00000000 15.00000000" energy_frozen_part=0.00000000 Properties=species:S:1:pos:R:3:velocities:R:3:Z:I:1
H         7.69067999       1.80272364      12.18722234         0.00000000       0.00000000       0.00000000          1
H         6.43556363       3.87024460      13.58519430         0.00000000       0.00000000       0.00000000          1
H         8.36007430       5.66831693      12.65379771         0.00000000       0.00000000       0.00000000          1
H         6.90171684       4.12061001      10.84214803         0.00000000       0.00000000       0.00000000          1
H         9.14903324       3.35043008      13.99887576         0.00000000       0.00000000       0.00000000          1
H         9.61519785       3.60078800      11.25582985         0.00000000       0.00000000       0.00000000          1
6
pbc=[F, F, F] list_num_par=6 frozen=false iter=20000 energy=-1.26974174 Lattice="15.00000000 0.00000000 0.00000000 0.00000000 15.00000000 0.00000000 0.00000000 0.00000000 15.00000000" energy_frozen_part=0.00000000 Properties=species:S:1:pos:R:3:velocities:R:3:Z:I:1
H         7.68492684       1.85449897      12.23083180         0.00000000       0.00000000       0.00000000          1
H         6.55461408       3.99467558      13.62593154         0.00000000       0.00000000       0.00000000          1
H         8.47702522       5.71193948      12.54907516         0.00000000       0.00000000       0.00000000          1
H         6.89121829       4.15397044      10.85725206         0.00000000       0.00000000       0.00000000          1
H         9.27072280       3.41246790      13.92265639         0.00000000       0.00000000       0.00000000          1
H         9.60733329       3.57176289      11.15397019         0.00000000       0.00000000       0.00000000          1
6
pbc=[F, F, F] list_num_par=6 frozen=false iter=20000 energy=-1.26974174 Lattice="15.00000000 0.00000000 0.00000000 0.00000000 15.00000000 0.00000000 0.00000000 0.00000000 15.00000000" energy_frozen_part=0.00000000 Properties=species:S:1:pos:R:3:velocities:R:3:Z:I:1
H         7.69073388       1.80277328      12.18725471         0.00000000       0.00000000       0.00000000          1
H         6.43558530       3.87037016      13.58508068         0.00000000       0.00000000       0.00000000          1
H         8.36009183       5.66840234      12.65359701         0.00000000       0.00000000       0.00000000          1
H         6.90176079       4.12057433      10.84202566         0.00000000       0.00000000       0.00000000          1
H         9.14905571       3.35060336      13.99882242         0.00000000       0.00000000       0.00000000          1
H         9.61523681       3.60080584      11.25576164         0.00000000       0.00000000       0.00000000          1
6
pbc=[F, F, F] list_num_par=6 frozen=false iter=20000 energy=-1.26974174 Lattice="15.00000000 0.00000000 0.00000000 0.00000000 15.00000000 0.00000000 0.00000000 0.00000000 15.00000000" energy_frozen_part=0.00000000 Properties=species:S:1:pos:R:3:velocities:R:3:Z:I:1
H         7.29964199       7.92715579      10.86685862         0.00000000       0.00000000       0.00000000          1
H         8.56834269       6.07273311      12.52691595         0.00000000       0.00000000       0.00000000          1
H         7.54171380       6.16462560       8.71298279         0.00000000       0.00000000       0.00000000          1
H         8.81041097       4.31020264      10.37304221         0.00000000       0.00000000       0.00000000          1
H         9.80661550       6.91205710      10.16757817         0.00000000       0.00000000       0.00000000          1
H         6.30344326       5.32529213      11.07232467         0.00000000       0.00000000       0.00000000          1
6
pbc=[F, F, F] list_num_par=6 frozen=false iter=20000 energy=-1.26974174 Lattice="15.00000000 0.00000000 0.00000000 0.00000000 15.00000000 0.00000000 0.00000000 0.00000000 15.00000000" energy_frozen_part=0.00000000 Properties=species:S:1:pos:R:3:velocities:R:3:Z:I:1
H         7.69077919       1.80278471      12.18729935         0.00000000       0.00000000       0.00000000          1
H         6.43564765       3.87051838      13.58493068         0.00000000       0.00000000       0.00000000          1
H         8.36021879       5.66842302      12.65334326         0.00000000       0.00000000       0.00000000          1
H         6.90190147       4.12048901      10.84185880         0.00000000       0.00000000       0.00000000          1
H         9.14909828       3.35072409      13.99878456         0.00000000       0.00000000       0.00000000          1
H         9.61535587       3.60068609      11.25572083         0.00000000       0.00000000       0.00000000          1
6
pbc=[F, F, F] list_num_par=6 frozen=false iter=20000 energy=-1.26974174 Lattice="15.00000000 0.00000000 0.00000000 0.00000000 15.00000000 0.00000000 0.00000000 0.00000000 15.00000000" energy_frozen_part=0.00000000 Properties=species:S:1:pos:R:3:velocities:R:3:Z:I:1
H         7.69093911       1.80268982      12.18755996         0.00000000       0.00000000       0.00000000          1
H         6.43579564       3.87041296      13.58521539         0.00000000       0.00000000       0.00000000          1
H         8.36024651       5.66837526      12.65350378         0.00000000       0.00000000       0.00000000          1
H         6.90190106       4.12034423      10.84212174         0.00000000       0.00000000       0.00000000          1
H         9.14929474       3.35072213      13.99893640         0.00000000       0.00000000       0.00000000          1
H         9.61539407       3.60065617      11.25584853         0.00000000       0.00000000       0.00000000          1
6
pbc=[F, F, F] list_num_par=6 frozen=false iter=20000 energy=-1.26974174 Lattice="15.00000000 0.00000000 0.00000000 0.00000000 15.00000000 0.00000000 0.00000000 0.00000000 15.00000000" energy_frozen_part=0.00000000 Properties=species:S:1:pos:R:3:velocities:R:3:Z:I:1
H         7.68495667       1.85449081      12.23082723         0.00000000       0.00000000       0.00000000          1
H         6.55458213       3.99468900      13.62584273         0.00000000       0.00000000       0.00000000          1
H         8.47699565       5.71195056      12.54899317         0.00000000       0.00000000       0.00000000          1
H         6.89126931       4.15391837      10.85715995         0.00000000       0.00000000       0.00000000          1
H         9.27069785       3.41251201      13.92264821         0.00000000       0.00000000       0.00000000          1
H         9.60737843       3.57174967      11.15397448         0.00000000       0.00000000       0.00000000          1
6
pbc=[F, F, F] list_num_par=6 frozen=false iter=20000 energy=-1.26974174 Lattice="15.00000000 0.00000000 0.00000000 0.00000000 15.00000000 0.00000000 0.00000000 0.00000000 15.00000000" energy_frozen_part=0.00000000 Properties=species:S:1:pos:R:3:velocities:R:3:Z:I:1
H         7.29965428       7.92715935      10.86687987         0.00000000       0.00000000       0.00000000          1
H         8.56837030       6.07272862      12.52691069         0.00000000       0.00000000       0.00000000          1
H         7.54170857       6.16465632       8.71297911         0.00000000       0.00000000       0.00000000          1
H         8.81041563       4.31021450      10.37301941         0.00000000       0.00000000       0.00000000          1
H         9.80661619       6.91207083      10.16756971         0.00000000       0.00000000       0.00000000          1
H         6.30345801       5.32529957      11.07232436         0.00000000       0.00000000       0.00000000          1
6
pbc=[F, F, F] list_num_par=6 frozen=false iter=20000 energy=-1.26974174 Lattice="15.00000000 0.00000000 0.00000000 0.00000000 15.00000000 0.00000000 0.00000000 0.00000000 15.00000000" energy_frozen_part=0.00000000 Properties=species:S:1:pos:R:3:velocities:R:3:Z:I:1
H         7.29963813       7.92721129      10.86690488         0.00000000       0.00000000       0.00000000          1
H         8.56833967       6.07277291      12.52695291         0.00000000       0.00000000       0.00000000          1
H         7.54174646       6.16472284       8.71299875         0.00000000       0.00000000       0.00000000          1
H         8.81043888       4.31027710      10.37304669         0.00000000       0.00000000       0.00000000          1
H         9.80662472       6.91214314      10.16763900         0.00000000       0.00000000       0.00000000          1
H         6.30346418       5.32534390      11.07231559         0.00000000       0.00000000       0.00000000          1
6
pbc=[F, F, F] list_num_par=6 frozen=false iter=20000 energy=-1.26974174 Lattice="15.00000000 0.00000000 0.00000000 0.00000000 15.00000000 0.00000000 0.00000000 0.00000000 15.00000000" energy_frozen_part=0.00000000 Properties=species:S:1:pos:R:3:velocities:R:3:Z:I:1
H         7.69075471       1.80276600      12.18725696         0.00000000       0.00000000       0.00000000          1
H         6.43560025       3.87035906      13.58508906         0.00000000       0.00000000       0.00000000          1
H         8.36009310       5.66840276      12.65359764         0.00000000       0.00000000       0.00000000          1
H         6.90177326       4.12055742      10.84203119         0.00000000       0.00000000       0.00000000          1
H         9.14907214       3.35060468      13.99882288         0.00000000       0.00000000       0.00000000          1
H         9.61524447       3.60080946      11.25576755         0.00000000       0.00000000       0.00000000          1
6
pbc=[F, F, F] list_num_par=6 frozen=false iter=20000 energy=-1.26974174 Lattice="15.00000000 0.00000000 0.00000000 0.00000000 15.00000000 0.00000000 0.00000000 0.00000000 15.00000000" energy_frozen_part=0.00000000 Properties=species:S:1:pos:R:3:velocities:R:3:Z:I:1
H         7.69093798       1.80266934      12.18746045         0.00000000       0.00000000       0.00000000          1
H         6.43572295       3.87030789      13.58516908         0.00000000       0.00000000       0.00000000          1