6
pbc=[F, F, F] list_num_par=6 frozen=false iter=9 energy=52.43677789 Lattice="15.00000000 0.00000000 0.00000000 0.00000000 15.00000000 0.00000000 0.00000000 0.00000000 15.00000000" energy_frozen_part=0.00000000 Properties=species:S:1:pos:R:3:velocities:R:3:Z:I:1
H        10.03959168       8.78715792      13.27572411         0.00000000       0.00000000       0.00000000          1
H        13.01673936       8.98930749      11.50671020         0.00000000       0.00000000       0.00000000          1
H         2.90062058      12.83334175      13.06789462         0.00000000       0.00000000       0.00000000          1
H         4.36936671       2.27176763      10.86854627         0.00000000       0.00000000       0.00000000          1
H         5.13759209       1.29122056      11.95522767         0.00000000       0.00000000       0.00000000          1
H         1.00586788       6.16399697      14.62044145         0.00000000       0.00000000       0.00000000          1
6
pbc=[F, F, F] list_num_par=6 frozen=false iter=19 energy=0.29310121 Lattice="15.00000000 0.00000000 0.00000000 0.00000000 15.00000000 0.00000000 0.00000000 0.00000000 15.00000000" energy_frozen_part=0.00000000 Properties=species:S:1:pos:R:3:velocities:R:3:Z:I:1
H         2.64065226      10.75080299       3.74511409         0.00000000       0.00000000       0.00000000          1
H         7.97595294      13.41386409       3.83184163         0.00000000       0.00000000       0.00000000          1
H        10.54980361       2.38601097      11.59236858         0.00000000       0.00000000       0.00000000          1
H         7.32318841      14.08197393       7.59976272         0.00000000       0.00000000       0.00000000          1
H         4.28258205       2.08179056      10.26258351         0.00000000       0.00000000       0.00000000          1
H         8.47654673      11.14306660       3.89925533         0.00000000       0.00000000       0.00000000          1
6
pbc=[F, F, F] list_num_par=6 frozen=false iter=29 energy=-0.00146698 Lattice="15.00000000 0.00000000 0.00000000 0.00000000 15.00000000 0.00000000 0.00000000 0.00000000 15.00000000" energy_frozen_part=0.00000000 Properties=species:S:1:pos:R:3:velocities:R:3:Z:I:1
H         3.18472918      14.20703601       9.42850233         0.00000000       0.00000000       0.00000000          1
H        11.74739963      14.08893297       8.13133349         0.00000000       0.00000000       0.00000000          1
H         0.82800009       7.88024017       3.24038030         0.00000000       0.00000000       0.00000000          1
H        12.03446763       6.88946949       4.36183281         0.00000000       0.00000000       0.00000000          1
H         1.42138734       1.81394947      14.83319226         0.00000000       0.00000000       0.00000000          1
H        13.91251900       1.30286694       1.27642218         0.00000000       0.00000000       0.00000000          1
6
pbc=[F, F, F] list_num_par=6 frozen=false iter=39 energy=-0.00637423 Lattice="15.00000000 0.00000000 0.00000000 0.00000000 15.00000000 0.00000000 0.00000000 0.00000000 15.00000000" energy_frozen_part=0.00000000 Properties=species:S:1:pos:R:3:velocities:R:3:Z:I:1
H         0.70255528       0.36072874      14.25690974         0.00000000       0.00000000       0.00000000          1
H        10.47060567       4.64828472       6.35911530         0.00000000       0.00000000       0.00000000          1
H         1.55229209       7.15014601       7.52105658         0.00000000       0.00000000       0.00000000          1
H         2.99892332       2.92093762       4.06532402         0.00000000       0.00000000       0.00000000          1
H         9.19796923      13.14594827       7.38689026         0.00000000       0.00000000       0.00000000          1
H        12.26248738       8.40871806      10.75263992         0.00000000       0.00000000       0.00000000          1
6
pbc=[F, F, F] list_num_par=6 frozen=false iter=49 energy=-0.00888101 Lattice="15.00000000 0.00000000 0.00000000 0.00000000 15.00000000 0.00000000 0.00000000 0.00000000 15.00000000" energy_frozen_part=0.00000000 Properties=species:S:1:pos:R:3:velocities:R:3:Z:I:1
H        10.11036559      14.49149834       1.67206057         0.00000000       0.00000000       0.00000000          1
H         9.94267034       7.95863226       6.47051972         0.00000000       0.00000000       0.00000000          1
H         3.13281600       7.71562422       3.06694278         0.00000000       0.00000000       0.00000000          1
H         0.39201046      13.24800306      10.42742388         0.00000000       0.00000000       0.00000000          1
H         2.75903909       0.62897929      11.14144691         0.00000000       0.00000000       0.00000000          1
H         4.39437035       3.68748662       7.47727807         0.00000000       0.00000000       0.00000000          1
6
pbc=[F, F, F] list_num_par=6 frozen=false iter=59 energy=-0.01229532 Lattice="15.00000000 0.00000000 0.00000000 0.00000000 15.00000000 0.00000000 0.00000000 0.00000000 15.00000000" energy_frozen_part=0.00000000 Properties=species:S:1:pos:R:3:velocities:R:3:Z:I:1
H         6.94100222      14.68236024       8.40496615         0.00000000       0.00000000       0.00000000          1
H        11.76485760       1.79437692       6.52502135         0.00000000       0.00000000       0.00000000          1
H         4.55088916       5.04119924       7.47864568         0.00000000       0.00000000       0.00000000          1
H         2.09471244       7.90205856       2.25933163         0.00000000       0.00000000       0.00000000          1
H         3.84630486      11.25051807       5.57259365         0.00000000       0.00000000       0.00000000          1
H        14.64582598      10.12856141      13.87410413         0.00000000       0.00000000       0.00000000          1
6
pbc=[F, F, F] list_num_par=6 frozen=false iter=69 energy=-0.01527153 Lattice="15.00000000 0.00000000 0.00000000 0.00000000 15.00000000 0.00000000 0.00000000 0.00000000 15.00000000" energy_frozen_part=0.00000000 Properties=species:S:1:pos:R:3:velocities:R:3:Z:I:1
H         8.92408602       7.49702148      11.18419032         0.00000000       0.00000000       0.00000000          1
H         4.78320788       7.90864602       4.79077799         0.00000000       0.00000000       0.00000000          1
H         3.36172068       9.11594199      12.18696555         0.00000000       0.00000000       0.00000000          1
H        11.73940491       2.70980593       5.96187776         0.00000000       0.00000000       0.00000000          1
H         1.56499228       2.53329864       5.78216034         0.00000000       0.00000000       0.00000000          1
H         1.55981654       4.97645210      13.19303354         0.00000000       0.00000000       0.00000000          1
6
pbc=[F, F, F] list_num_par=6 frozen=false iter=79 energy=-0.01789517 Lattice="15.00000000 0.00000000 0.00000000 0.00000000 15.00000000 0.00000000 0.00000000 0.00000000 15.00000000" energy_frozen_part=0.00000000 Properties=species:S:1:pos:R:3:velocities:R:3:Z:I:1
H        10.38840272      11.13575225       5.59287336         0.00000000       0.00000000       0.00000000          1
H         2.74829949       0.51832447      14.68445739         0.00000000       0.00000000       0.00000000          1
H        13.86384438       4.39297795       4.89675727         0.00000000       0.00000000       0.00000000          1
H         8.09622865       6.94787604      11.31314541         0.00000000       0.00000000       0.00000000          1
H        10.60950648       2.70809050      10.35160386         0.00000000       0.00000000       0.00000000          1
H        12.89323400       7.02920945      12.79427651         0.00000000       0.00000000       0.00000000          1
6
pbc=[F, F, F] list_num_par=6 frozen=false iter=89 energy=-0.02277710 Lattice="15.00000000 0.00000000 0.00000000 0.00000000 15.00000000 0.00000000 0.00000000 0.00000000 15.00000000" energy_frozen_part=0.00000000 Properties=species:S:1:pos:R:3:velocities:R:3:Z:I:1
H        12.59348995       1.26372278       9.12806968         0.00000000       0.00000000       0.00000000          1
H        12.65987917       6.99710920      13.17802505         0.00000000       0.00000000       0.00000000          1
H         7.79650870       3.29740824       8.62409515         0.00000000       0.00000000       0.00000000          1
H         8.86971784       3.50607408       0.25151115         0.00000000       0.00000000       0.00000000          1
H         0.32656490       8.06434736      11.28900191         0.00000000       0.00000000       0.00000000          1
H         3.16266019       4.76434538      10.18962090         0.00000000       0.00000000       0.00000000          1
6
pbc=[F, F, F] list_num_par=6 frozen=false iter=99 energy=-0.02843947 Lattice="15.00000000 0.00000000 0.00000000 0.00000000 15.00000000 0.00000000 0.00000000 0.00000000 15.00000000" energy_frozen_part=0.00000000 Properties=species:S:1:pos:R:3:velocities:R:3:Z:I:1
H         6.92004068       3.01972249       0.62152383         0.00000000       0.00000000       0.00000000          1
H         2.19971641       6.94184144       7.63799920         0.00000000       0.00000000       0.00000000          1
H        11.27753621       3.14899216       2.24494598         0.00000000       0.00000000       0.00000000          1
H         2.87081467      11.68145162       3.26312040         0.00000000       0.00000000       0.00000000          1
H        14.21210086       5.93589808       1.14599240         0.00000000       0.00000000       0.00000000          1
H         9.52400810      13.90419627       0.57196871         0.00000000       0.00000000       0.00000000          1
6
pbc=[F, F, F] list_num_par=6 frozen=false iter=109 energy=-0.03300061 Lattice="15.00000000 0.00000000 0.00000000 0.00000000 15.00000000 0.00000000 0.00000000 0.00000000 15.00000000" energy_frozen_part=0.00000000 Properties=species:S:1:pos:R:3:velocities:R:3:Z:I:1
H         3.80738773       2.23358357       5.96472662         0.00000000       0.00000000       0.00000000          1
H         4.32175027       0.06076419      11.21737533         0.00000000       0.00000000       0.00000000          1
H         7.32899994       2.45471548      14.52006273         0.00000000       0.00000000       0.00000000          1
H         7.59270713      11.00725065       4.53298304         0.00000000       0.00000000       0.00000000          1
H         9.31609922      11.58932953       0.64049691         0.00000000       0.00000000       0.00000000          1
H         8.36847153       9.01373250       8.65577169         0.00000000       0.00000000       0.00000000          1
6
pbc=[F, F, F] list_num_par=6 frozen=false iter=119 energy=-0.03708745 Lattice="15.00000000 0.00000000 0.00000000 0.00000000 15.00000000 0.00000000 0.00000000 0.00000000 15.00000000" energy_frozen_part=0.00000000 Properties=species:S:1:pos:R:3:velocities:R:3:Z:I:1
H         2.59759580       5.39439525       6.27995984         0.00000000       0.00000000       0.00000000          1
H        12.87307412       4.52054379      10.44400780         0.00000000       0.00000000       0.00000000          1
H         8.01726967       8.31806953      11.15656907         0.00000000       0.00000000       0.00000000          1
H         5.92286192       5.93343673       4.52588917         0.00000000       0.00000000       0.00000000          1
H        12.53150801       1.87786618       0.32365492         0.00000000       0.00000000       0.00000000          1
H        14.29281463       9.55078121      12.11366370         0.00000000       0.00000000       0.00000000          1
6
pbc=[F, F, F] list_num_par=6 frozen=false iter=129 energy=-0.04475560 Lattice="15.00000000 0.00000000 0.00000000 0.00000000 15.00000000 0.00000000 0.00000000 0.00000000 15.00000000" energy_frozen_part=0.00000000 Properties=species:S:1:pos:R:3:velocities:R:3:Z:I:1
H        10.78225792       5.73748709      11.19608209         0.00000000       0.00000000       0.00000000          1
H         8.43151747       2.11673011       6.57866183         0.00000000       0.00000000       0.00000000          1
H         8.08627868      11.95035391       4.12246105         0.00000000       0.00000000       0.00000000          1
H         6.15150755       8.08572800       3.87407567         0.00000000       0.00000000       0.00000000          1
H         5.07935458       9.20477360       9.17802779         0.00000000       0.00000000       0.00000000          1
H        10.45906806       5.87197165       5.56591519         0.00000000       0.00000000       0.00000000          1
6
pbc=[F, F, F] list_num_par=6 frozen=false iter=139 energy=-0.04955608 Lattice="15.00000000 0.00000000 0.00000000 0.00000000 15.00000000 0.00000000 0.00000000 0.00000000 15.00000000" energy_frozen_part=0.00000000 Properties=species:S:1:pos:R:3:velocities:R:3:Z:I:1
H         3.65239404       4.14875974       6.78752147         0.00000000       0.00000000       0.00000000          1
H         3.97663507       7.73210741       7.20609991         0.00000000       0.00000000       0.00000000          1
H        13.22360856       2.95601858       1.35717610         0.00000000       0.00000000       0.00000000          1
H         6.21849045      14.72355582       8.30926728         0.00000000       0.00000000       0.00000000          1
H         8.06910598       7.97290337       0.03153646         0.00000000       0.00000000       0.00000000          1
H         7.93684227      11.45701517       4.77925771         0.00000000       0.00000000       0.00000000          1
6
pbc=[F, F, F] list_num_par=6 frozen=false iter=149 energy=-0.05468625 Lattice="15.00000000 0.00000000 0.00000000 0.00000000 15.00000000 0.00000000 0.00000000 0.00000000 15.00000000" energy_frozen_part=0.00000000 Properties=species:S:1:pos:R:3:velocities:R:3:Z:I:1
H         5.31790571       6.25655485      12.57566739         0.00000000       0.00000000       0.00000000          1
H        12.43616209       3.47400726      11.65562967         0.00000000       0.00000000       0.00000000          1
H         7.88355168       5.70543063       9.19542802         0.00000000       0.00000000       0.00000000          1
H         4.19135346       8.14942944       9.26858325         0.00000000       0.00000000       0.00000000          1
H         0.16449279       0.73839281      11.52466550         0.00000000       0.00000000       0.00000000          1
H        13.94380871      12.02147063       5.47419111         0.00000000       0.00000000       0.00000000          1
6
pbc=[F, F, F] list_num_par=6 frozen=false iter=159 energy=-0.06113086 Lattice="15.00000000 0.00000000 0.00000000 0.00000000 15.00000000 0.00000000 0.00000000 0.00000000 15.00000000" energy_frozen_part=0.00000000 Properties=species:S:1:pos:R:3:velocities:R:3:Z:I:1
H         6.92195778       8.37274623      12.25437672         0.00000000       0.00000000       0.00000000          1
H         4.63053769      10.01290421       9.08601468         0.00000000       0.00000000       0.00000000          1
H         9.08324036       0.09963318       9.24796477         0.00000000       0.00000000       0.00000000          1
H         0.71274673       1.03716230      10.56670591         0.00000000       0.00000000       0.00000000          1
H         3.35175586       4.79612204       8.42768580         0.00000000       0.00000000       0.00000000          1
H         2.38903324       7.37196139       5.67309882         0.00000000       0.00000000       0.00000000          1
6
pbc=[F, F, F] list_num_par=6 frozen=false iter=169 energy=-0.06512763 Lattice="15.00000000 0.00000000 0.00000000 0.00000000 15.00000000 0.00000000 0.00000000 0.00000000 15.00000000" energy_frozen_part=0.00000000 Properties=species:S:1:pos:R:3:velocities:R:3:Z:I:1
H         9.72339317       9.45202834       0.41410366         0.00000000       0.00000000       0.00000000          1
H         1.77913207       1.28753756      10.48597821         0.00000000       0.00000000       0.00000000          1
H        14.35260722       0.81982386      11.03580807         0.00000000       0.00000000       0.00000000          1
H        10.23849973       1.40303053       6.69026010         0.00000000       0.00000000       0.00000000          1
H        10.61943415       8.54584798       2.65116150         0.00000000       0.00000000       0.00000000          1
H        13.24526189      13.08548176       0.89209285         0.00000000       0.00000000       0.00000000          1
6
pbc=[F, F, F] list_num_par=6 frozen=false iter=179 energy=-0.07035659 Lattice="15.00000000 0.00000000 0.00000000 0.00000000 15.00000000 0.00000000 0.00000000 0.00000000 15.00000000" energy_frozen_part=0.00000000 Properties=species:S:1:pos:R:3:velocities:R:3:Z:I:1
H         7.35082283       4.52015487       4.56828825         0.00000000       0.00000000       0.00000000          1
H        10.83084000       4.54308252      12.88280039         0.00000000       0.00000000       0.00000000          1
H        11.09408583       7.37836469       4.58459683         0.00000000       0.00000000       0.00000000          1
H         6.04395861       8.26729254      14.72989170         0.00000000       0.00000000       0.00000000          1
H        14.21911185       5.00456613       4.12963178         0.00000000       0.00000000       0.00000000          1
H        12.11102441       7.62991375       8.29243864         0.00000000       0.00000000       0.00000000          1
6
pbc=[F, F, F] list_num_par=6 frozen=false iter=189 energy=-0.07652924 Lattice="15.00000000 0.00000000 0.00000000 0.00000000 15.00000000 0.00000000 0.00000000 0.00000000 15.00000000" energy_frozen_part=0.00000000 Properties=species:S:1:pos:R:3:velocities:R:3:Z:I:1
H         6.87131093       6.78644634       1.14714143         0.00000000       0.00000000       0.00000000          1
H        11.86437586       0.32225760       2.50104971         0.00000000       0.00000000       0.00000000          1
H        14.47115917      10.48859027       9.48106268         0.00000000       0.00000000       0.00000000          1
H        12.10372588       8.38260890      12.95544449         0.00000000       0.00000000       0.00000000          1
H         4.87227597       5.15516719       3.10271686         0.00000000       0.00000000       0.00000000          1
H        10.98409394       1.46219636      11.72164362         0.00000000       0.00000000       0.00000000          1
6
pbc=[F, F, F] list_num_par=6 frozen=false iter=199 energy=-0.08264942 Lattice="15.00000000 0.00000000 0.00000000 0.00000000 15.00000000 0.00000000 0.00000000 0.00000000 15.00000000" energy_frozen_part=0.00000000 Properties=species:S:1:pos:R:3:velocities:R:3:Z:I:1
H         4.69532329      14.44161626       8.71277826         0.00000000       0.00000000       0.00000000          1
H         5.85002712       6.26022930       7.74611119         0.00000000       0.00000000       0.00000000          1
H         5.96999567      12.24846044      11.17681215         0.00000000       0.00000000       0.00000000          1
H         5.94646360       3.67983187       1.94401218         0.00000000       0.00000000       0.00000000          1
H         4.82977061       6.68640029       0.15587737         0.00000000       0.00000000       0.00000000          1
H        10.90318312       5.48485317      13.45150172         0.00000000       0.00000000       0.00000000          1
6
pbc=[F, F, F] list_num_par=6 frozen=false iter=209 energy=-0.08700293 Lattice="15.00000000 0.00000000 0.00000000 0.00000000 15.00000000 0.00000000 0.00000000 0.00000000 15.00000000" energy_frozen_part=0.00000000 Properties=species:S:1:pos:R:3:velocities:R:3:Z:I:1
H         4.71467180       9.70583223       2.03238732         0.00000000       0.00000000       0.00000000          1
H         5.20427179       8.60504181       6.61805990         0.00000000       0.00000000       0.00000000          1
H         3.42740083       7.33241201      10.25437927         0.00000000       0.00000000       0.00000000          1
H         1.07456426       7.40782764      12.61624453         0.00000000       0.00000000       0.00000000          1
H         5.17165010      14.66789846       5.53280896         0.00000000       0.00000000       0.00000000          1
H         0.28408936       2.25823364       2.14241269         0.00000000       0.00000000       0.00000000          1
6
pbc=[F, F, F] list_num_par=6 frozen=false iter=219 energy=-0.09280140 Lattice="15.00000000 0.00000000 0.00000000 0.00000000 15.00000000 0.00000000 0.00000000 0.00000000 15.00000000" energy_frozen_part=0.00000000 Properties=species:S:1:pos:R:3:velocities:R:3:Z:I:1
H         8.95970380      10.25965205       4.52613208         0.00000000       0.00000000       0.00000000          1
H         8.90376408       0.04398878       7.66778789         0.00000000       0.00000000       0.00000000          1
H        12.32135959      11.63998776       8.69761980         0.00000000       0.00000000       0.00000000          1
H         8.82870091      11.02736947       9.67106236         0.00000000       0.00000000       0.00000000          1
H        10.23549757      10.33994972      13.00860279         0.00000000       0.00000000       0.00000000          1
H         4.55488289      11.18203325      12.55963623         0.00000000       0.00000000       0.00000000          1
6
pbc=[F, F, F] list_num_par=6 frozen=false iter=229 energy=-0.09753233 Lattice="15.00000000 0.00000000 0.00000000 0.00000000 15.00000000 0.00000000 0.00000000 0.00000000 15.00000000" energy_frozen_part=0.00000000 Properties=species:S:1:pos:R:3:velocities:R:3:Z:I:1
H         0.01439005      12.97028511       4.99980072         0.00000000       0.00000000       0.00000000          1
H         0.36895585       0.40784996       1.10249271         0.00000000       0.00000000       0.00000000          1
H        13.69088097      11.16456387       7.25116333         0.00000000       0.00000000       0.00000000          1
H        11.65863671       2.64818199      14.71317261         0.00000000       0.00000000       0.00000000          1
H         2.07074722       7.37348793       1.93099283         0.00000000       0.00000000       0.00000000          1
H        12.76846043       8.69285598       6.01966427         0.00000000       0.00000000       0.00000000          1
6
pbc=[F, F, F] list_num_par=6 frozen=false iter=239 energy=-0.09875561 Lattice="15.00000000 0.00000000 0.00000000 0.00000000 15.00000000 0.00000000 0.00000000 0.00000000 15.00000000" energy_frozen_part=0.00000000 Properties=species:S:1:pos:R:3:velocities:R:3:Z:I:1
H         6.87707950       6.39069357       0.61916913         0.00000000       0.00000000       0.00000000          1
H        10.69828843       3.92987293       5.19433562         0.00000000       0.00000000       0.00000000          1
H        12.03767035       5.53085389       7.43973428         0.00000000       0.00000000       0.00000000          1
H         0.35342770      13.73874641       3.84774370         0.00000000       0.00000000       0.00000000          1
H         3.06029118       6.38763412       2.73560514         0.00000000       0.00000000       0.00000000          1
H         3.38959935      14.60959010      10.77220665         0.00000000       0.00000000       0.00000000          1
6
pbc=[F, F, F] list_num_par=6 frozen=false iter=249 energy=-0.10145293 Lattice="15.00000000 0.00000000 0.00000000 0.00000000 15.00000000 0.00000000 0.00000000 0.00000000 15.00000000" energy_frozen_part=0.00000000 Properties=species:S:1:pos:R:3:velocities:R:3:Z:I:1
H        10.35465615       8.85060961      11.45275825         0.00000000       0.00000000       0.00000000          1
H         8.40304413      14.56653452       6.79812811         0.00000000       0.00000000       0.00000000          1
H         6.97691724      13.51254789       4.47315151         0.00000000       0.00000000       0.00000000          1
H         3.07554737      11.31415487      13.71572706         0.00000000       0.00000000       0.00000000          1
H        10.14266107      10.39059072       0.28817481         0.00000000       0.00000000       0.00000000          1
H        10.28750658       5.40014398       7.09164069         0.00000000       0.00000000       0.00000000          1
6
pbc=[F, F, F] list_num_par=6 frozen=false iter=259 energy=-0.10449868 Lattice="15.00000000 0.00000000 0.00000000 0.00000000 15.00000000 0.00000000 0.00000000 0.00000000 15.00000000" energy_frozen_part=0.00000000 Properties=species:S:1:pos:R:3:velocities:R:3:Z:I:1
H        11.45816646       0.45410900       5.62548775         0.00000000       0.00000000       0.00000000          1
H         9.95152669       2.91885743      11.81858828         0.00000000       0.00000000       0.00000000          1
H        12.01037060       6.57966984       6.76663485         0.00000000       0.00000000       0.00000000          1
H         4.60409286      10.10493856      11.47112354         0.00000000       0.00000000       0.00000000          1
H        12.17990114       0.56782331      11.03127892         0.00000000       0.00000000       0.00000000          1
H         7.20409503       0.64791018      12.84337081         0.00000000       0.00000000       0.00000000          1
6
pbc=[F, F, F] list_num_par=6 frozen=false iter=269 energy=-0.10787108 Lattice="15.00000000 0.00000000 0.00000000 0.00000000 15.00000000 0.00000000 0.00000000 0.00000000 15.00000000" energy_frozen_part=0.00000000 Properties=species:S:1:pos:R:3:velocities:R:3:Z:I:1
H         9.06651295      12.65967062      13.21159227         0.00000000       0.00000000       0.00000000          1
H        13.87638699       3.10622184      11.69040072         0.00000000       0.00000000       0.00000000          1
H        10.73939399      10.16309789      13.66148828         0.00000000       0.00000000       0.00000000          1
H         2.00096455       2.08814418       6.30286528         0.00000000       0.00000000       0.00000000          1
H        13.08129351      13.95363758      11.82492160         0.00000000       0.00000000       0.00000000          1
H         0.51929394       7.73542588       5.95300439         0.00000000       0.00000000       0.00000000          1
6
pbc=[F, F, F] list_num_par=6 frozen=false iter=279 energy=-0.11158198 Lattice="15.00000000 0.00000000 0.00000000 0.00000000 15.00000000 0.00000000 0.00000000 0.00000000 15.00000000" energy_frozen_part=0.00000000 Properties=species:S:1:pos:R:3:velocities:R:3:Z:I:1
H         6.40373412       5.92812061      12.93759204         0.00000000       0.00000000       0.00000000          1
H         6.71519197       9.73831181      13.20566309         0.00000000       0.00000000       0.00000000          1
H         3.30231174       4.41795960      13.32731111         0.00000000       0.00000000       0.00000000          1
H         0.54220475       2.49903539       8.24190034         0.00000000       0.00000000       0.00000000          1
H         4.78950886       3.19521996       9.27579210         0.00000000       0.00000000       0.00000000          1
H         1.48543039       8.95915302       3.07785905         0.00000000       0.00000000       0.00000000          1
6
pbc=[F, F, F] list_num_par=6 frozen=false iter=289 energy=-0.11420304 Lattice="15.00000000 0.00000000 0.00000000 0.00000000 15.00000000 0.00000000 0.00000000 0.00000000 15.00000000" energy_frozen_part=0.00000000 Properties=species:S:1:pos:R:3:velocities:R:3:Z:I:1
H         4.88484503       4.80948027       5.73104374         0.00000000       0.00000000       0.00000000          1
H        14.71759061       1.95312391       9.51106370         0.00000000       0.00000000       0.00000000          1
H         2.50702129       3.40902113       5.01322653         0.00000000       0.00000000       0.00000000          1
H         6.74777824       8.57763636       8.15672942         0.00000000       0.00000000       0.00000000          1
H         3.31974555      13.72397683       6.85124967         0.00000000       0.00000000       0.00000000          1
H         0.78439871       9.94370809       3.90496690         0.00000000       0.00000000       0.00000000          1
6
pbc=[F, F, F] list_num_par=6 frozen=false iter=299 energy=-0.11771143 Lattice="15.00000000 0.00000000 0.00000000 0.00000000 15.00000000 0.00000000 0.00000000 0.00000000 15.00000000" energy_frozen_part=0.00000000 Properties=species:S:1:pos:R:3:velocities:R:3:Z:I:1
H         7.08593687       9.81160978      10.47428021         0.00000000       0.00000000       0.00000000          1
H        12.68006549      10.17713202       6.52528627         0.00000000       0.00000000       0.00000000          1
H         9.44194516       6.97726325       6.01320156         0.00000000       0.00000000       0.00000000          1
H         3.92369056       7.18319770      13.25663138         0.00000000       0.00000000       0.00000000          1
H         6.39775462      10.98833970       2.81824769         0.00000000       0.00000000       0.00000000          1
H         7.75590749       9.11763991       0.95784691         0.00000000       0.00000000       0.00000000          1
6
pbc=[F, F, F] list_num_par=6 frozen=false iter=309 energy=-0.12038994 Lattice="15.00000000 0.00000000 0.00000000 0.00000000 15.00000000 0.00000000 0.00000000 0.00000000 15.00000000" energy_frozen_part=0.00000000 Properties=species:S:1:pos:R:3:velocities:R:3:Z:I:1
H         5.18756399       9.37297874       2.79546397         0.00000000       0.00000000       0.00000000          1
H        10.93025990       7.96760096       2.63666568         0.00000000       0.00000000       0.00000000          1