6
pbc=[F, F, F] list_num_par=6 frozen=false iter=9 energy=11.67293376 Lattice="15.00000000 0.00000000 0.00000000 0.00000000 15.00000000 0.00000000 0.00000000 0.00000000 15.00000000" energy_frozen_part=0.00000000 Properties=species:S:1:pos:R:3:velocities:R:3:Z:I:1
H        10.79653452       2.15976908       9.86775854         0.00000000       0.00000000       0.00000000          1
H         8.98711998       6.69555841       8.22773453         0.00000000       0.00000000       0.00000000          1
H         5.09266438      13.22907156       5.90051658         0.00000000       0.00000000       0.00000000          1
H         4.64468559      13.72929034       8.94777582         0.00000000       0.00000000       0.00000000          1
H        11.77467414       1.72003309       7.88390442         0.00000000       0.00000000       0.00000000          1
H        10.80360893       3.74155745      10.85511748         0.00000000       0.00000000       0.00000000          1
6
pbc=[F, F, F] list_num_par=6 frozen=false iter=19 energy=-0.00041709 Lattice="15.00000000 0.00000000 0.00000000 0.00000000 15.00000000 0.00000000 0.00000000 0.00000000 15.00000000" energy_frozen_part=0.00000000 Properties=species:S:1:pos:R:3:velocities:R:3:Z:I:1
H         0.04451335       8.89608171       4.18896249         0.00000000       0.00000000       0.00000000          1
H         0.79660288       6.97872537      13.80391459         0.00000000       0.00000000       0.00000000          1
H        12.43290347      10.28151182      13.80123020         0.00000000       0.00000000       0.00000000          1
H         4.57099366       0.46799099       1.72733501         0.00000000       0.00000000       0.00000000          1
H        13.92485008       0.56854525      10.27047219         0.00000000       0.00000000       0.00000000          1
H         7.39248392      10.04764390       2.51649401         0.00000000       0.00000000       0.00000000          1
6
pbc=[F, F, F] list_num_par=6 frozen=false iter=29 energy=-0.00363268 Lattice="15.00000000 0.00000000 0.00000000 0.00000000 15.00000000 0.00000000 0.00000000 0.00000000 15.00000000" energy_frozen_part=0.00000000 Properties=species:S:1:pos:R:3:velocities:R:3:Z:I:1
H         2.13587459      13.68988063       7.77735087         0.00000000       0.00000000       0.00000000          1
H         3.81627832       0.35747517       7.00407772         0.00000000       0.00000000       0.00000000          1
H         3.93904165      14.98697549      13.65956232         0.00000000       0.00000000       0.00000000          1
H        11.20128107      11.25811474       0.45126706         0.00000000       0.00000000       0.00000000          1
H        10.75111310       2.90793146       5.20995866         0.00000000       0.00000000       0.00000000          1
H         9.73231909      13.41149619      12.08110916         0.00000000       0.00000000       0.00000000          1
6
pbc=[F, F, F] list_num_par=6 frozen=false iter=39 energy=-0.00511062 Lattice="15.00000000 0.00000000 0.00000000 0.00000000 15.00000000 0.00000000 0.00000000 0.00000000 15.00000000" energy_frozen_part=0.00000000 Properties=species:S:1:pos:R:3:velocities:R:3:Z:I:1
H         9.93635930       8.35551673       8.16686836         0.00000000       0.00000000       0.00000000          1
H         1.65850980      10.20374520      13.84000313         0.00000000       0.00000000       0.00000000          1
H         4.79680937       0.43464323       4.11871264         0.00000000       0.00000000       0.00000000          1
H        11.25734121      13.53041393       6.08606576         0.00000000       0.00000000       0.00000000          1
H         1.51095977      10.80387655       3.01070034         0.00000000       0.00000000       0.00000000          1
H         1.43855255       4.97566133       6.79789874         0.00000000       0.00000000       0.00000000          1
6
pbc=[F, F, F] list_num_par=6 frozen=false iter=49 energy=-0.00915059 Lattice="15.00000000 0.00000000 0.00000000 0.00000000 15.00000000 0.00000000 0.00000000 0.00000000 15.00000000" energy_frozen_part=0.00000000 Properties=species:S:1:pos:R:3:velocities:R:3:Z:I:1
H         0.34746749       4.07431708       9.86069368         0.00000000       0.00000000       0.00000000          1
H         4.43184169       9.09343250       9.09969463         0.00000000       0.00000000       0.00000000          1
H         4.64792126       5.54657054       5.55320129         0.00000000       0.00000000       0.00000000          1
H         8.18040613       2.49997669      13.86979860         0.00000000       0.00000000       0.00000000          1
H        13.54809042       2.17356197       7.52268412         0.00000000       0.00000000       0.00000000          1
H         0.96643401      12.72301676       1.24435703         0.00000000       0.00000000       0.00000000          1
6
pbc=[F, F, F] list_num_par=6 frozen=false iter=59 energy=-0.01271293 Lattice="15.00000000 0.00000000 0.00000000 0.00000000 15.00000000 0.00000000 0.00000000 0.00000000 15.00000000" energy_frozen_part=0.00000000 Properties=species:S:1:pos:R:3:velocities:R:3:Z:I:1
H        14.20022854       5.59829515      12.87614211         0.00000000       0.00000000       0.00000000          1
H         9.36907193       1.04599142       5.45178518         0.00000000       0.00000000       0.00000000          1
H         3.92820655      10.04929130       3.76788476         0.00000000       0.00000000       0.00000000          1
H        11.46164204       5.37688249       8.84528214         0.00000000       0.00000000       0.00000000          1
H        12.37784005       2.92242702       1.04626283         0.00000000       0.00000000       0.00000000          1
H         4.01772242       2.10256395      11.55764094         0.00000000       0.00000000       0.00000000          1
6
pbc=[F, F, F] list_num_par=6 frozen=false iter=69 energy=-0.01556359 Lattice="15.00000000 0.00000000 0.00000000 0.00000000 15.00000000 0.00000000 0.00000000 0.00000000 15.00000000" energy_frozen_part=0.00000000 Properties=species:S:1:pos:R:3:velocities:R:3:Z:I:1
H         6.21047305      13.17764046       0.52673904         0.00000000       0.00000000       0.00000000          1
H        14.96541946       5.63050377       9.71061017         0.00000000       0.00000000       0.00000000          1
H         0.61730477      12.61403030       5.64617211         0.00000000       0.00000000       0.00000000          1
H         8.26434455      10.17025735      10.57423403         0.00000000       0.00000000       0.00000000          1
H        10.17536467      12.59943987       2.08165562         0.00000000       0.00000000       0.00000000          1
H         0.91035872       1.84062966      11.45702364         0.00000000       0.00000000       0.00000000          1
6
pbc=[F, F, F] list_num_par=6 frozen=false iter=79 energy=-0.01919596 Lattice="15.00000000 0.00000000 0.00000000 0.00000000 15.00000000 0.00000000 0.00000000 0.00000000 15.00000000" energy_frozen_part=0.00000000 Properties=species:S:1:pos:R:3:velocities:R:3:Z:I:1
H        11.79253939       3.46422565      13.94897037         0.00000000       0.00000000       0.00000000          1
H        12.29763029       4.34477744       0.72394286         0.00000000       0.00000000       0.00000000          1
H         5.84964476       5.78384173       1.04271454         0.00000000       0.00000000       0.00000000          1
H         8.79544443      12.03939849      14.05003766         0.00000000       0.00000000       0.00000000          1
H        12.50467821      13.63732662      12.98433960         0.00000000       0.00000000       0.00000000          1
H         2.36475678      11.19319828       4.23928101         0.00000000       0.00000000       0.00000000          1
6
pbc=[F, F, F] list_num_par=6 frozen=false iter=89 energy=-0.02406406 Lattice="15.00000000 0.00000000 0.00000000 0.00000000 15.00000000 0.00000000 0.00000000 0.00000000 15.00000000" energy_frozen_part=0.00000000 Properties=species:S:1:pos:R:3:velocities:R:3:Z:I:1
H         3.55488285       0.58363548       6.39089166         0.00000000       0.00000000       0.00000000          1
H        13.11244594      11.95994314       3.38663238         0.00000000       0.00000000       0.00000000          1
H         5.58611281       4.34446848      11.66751178         0.00000000       0.00000000       0.00000000          1
H         4.67297925       4.84302532       1.12458855         0.00000000       0.00000000       0.00000000          1
H        12.05218180       3.37014200       5.50696727         0.00000000       0.00000000       0.00000000          1
H        14.50920934       5.58355701       3.16726627         0.00000000       0.00000000       0.00000000          1
6
pbc=[F, F, F] list_num_par=6 frozen=false iter=99 energy=-0.02636579 Lattice="15.00000000 0.00000000 0.00000000 0.00000000 15.00000000 0.00000000 0.00000000 0.00000000 15.00000000" energy_frozen_part=0.00000000 Properties=species:S:1:pos:R:3:velocities:R:3:Z:I:1
H        11.98861069       0.76622048      11.68065078         0.00000000       0.00000000       0.00000000          1
H         9.20785760       5.19749410      12.70243402         0.00000000       0.00000000       0.00000000          1
H         1.11239266       0.17981127       6.28904073         0.00000000       0.00000000       0.00000000          1
H         7.91414885       5.72088921       8.67780961         0.00000000       0.00000000       0.00000000          1
H         8.47458394      12.50646224       0.37603202         0.00000000       0.00000000       0.00000000          1
H         6.40888780       0.03737857       6.07426397         0.00000000       0.00000000       0.00000000          1
6
pbc=[F, F, F] list_num_par=6 frozen=false iter=109 energy=-0.02992838 Lattice="15.00000000 0.00000000 0.00000000 0.00000000 15.00000000 0.00000000 0.00000000 0.00000000 15.00000000" energy_frozen_part=0.00000000 Properties=species:S:1:pos:R:3:velocities:R:3:Z:I:1
H        11.53573084       3.52469055       6.18074439         0.00000000       0.00000000       0.00000000          1
H        12.13100309       1.07214843       9.82510742         0.00000000       0.00000000       0.00000000          1
H         7.71516004       4.94828977       3.09150205         0.00000000       0.00000000       0.00000000          1
H         4.90336094       1.47646717      12.48015244         0.00000000       0.00000000       0.00000000          1
H         1.07687914       1.04189028       9.24848826         0.00000000       0.00000000       0.00000000          1
H         6.77418180       9.88244660       2.70267297         0.00000000       0.00000000       0.00000000          1
6
pbc=[F, F, F] list_num_par=6 frozen=false iter=119 energy=-0.03595775 Lattice="15.00000000 0.00000000 0.00000000 0.00000000 15.00000000 0.00000000 0.00000000 0.00000000 15.00000000" energy_frozen_part=0.00000000 Properties=species:S:1:pos:R:3:velocities:R:3:Z:I:1
H         5.40676763       0.81467093      13.81265076         0.00000000       0.00000000       0.00000000          1
H         1.97479830       1.29126513      11.33991124         0.00000000       0.00000000       0.00000000          1
H         7.76280059       4.52679189      10.27735386         0.00000000       0.00000000       0.00000000          1
H        12.69090973       4.65446240       9.40900646         0.00000000       0.00000000       0.00000000          1
H         0.30714229       6.97853642       0.71309480         0.00000000       0.00000000       0.00000000          1
H        13.40239314       1.86020302      13.06340385         0.00000000       0.00000000       0.00000000          1
6
pbc=[F, F, F] list_num_par=6 frozen=false iter=129 energy=-0.03975246 Lattice="15.00000000 0.00000000 0.00000000 0.00000000 15.00000000 0.00000000 0.00000000 0.00000000 15.00000000" energy_frozen_part=0.00000000 Properties=species:S:1:pos:R:3:velocities:R:3:Z:I:1
H         5.31022471       5.33286114      14.42521806         0.00000000       0.00000000       0.00000000          1
H         0.96904789      10.01556904      12.44326574         0.00000000       0.00000000       0.00000000          1
H         7.22242745       9.93451774      13.88230729         0.00000000       0.00000000       0.00000000          1
H         1.09223182      13.18338220       7.43888879         0.00000000       0.00000000       0.00000000          1
H         4.01246642      10.85082044       6.49782582         0.00000000       0.00000000       0.00000000          1
H         7.41369419       6.35441269       2.07485958         0.00000000       0.00000000       0.00000000          1
6
pbc=[F, F, F] list_num_par=6 frozen=false iter=139 energy=-0.04763835 Lattice="15.00000000 0.00000000 0.00000000 0.00000000 15.00000000 0.00000000 0.00000000 0.00000000 15.00000000" energy_frozen_part=0.00000000 Properties=species:S:1:pos:R:3:velocities:R:3:Z:I:1
H        11.46426763      13.12984870      10.61951571         0.00000000       0.00000000       0.00000000          1
H        14.13982419       7.03790385      13.69384798         0.00000000       0.00000000       0.00000000          1
H         4.14998188       8.15301425       6.32856896         0.00000000       0.00000000       0.00000000          1
H        13.02474967       1.14790993      12.97214712         0.00000000       0.00000000       0.00000000          1
H         1.80920612      13.94306931       5.82004205         0.00000000       0.00000000       0.00000000          1
H        11.42817856       4.21677305      14.87907616         0.00000000       0.00000000       0.00000000          1
6
pbc=[F, F, F] list_num_par=6 frozen=false iter=149 energy=-0.05094683 Lattice="15.00000000 0.00000000 0.00000000 0.00000000 15.00000000 0.00000000 0.00000000 0.00000000 15.00000000" energy_frozen_part=0.00000000 Properties=species:S:1:pos:R:3:velocities:R:3:Z:I:1
H         2.95524925       6.32705963       8.00985105         0.00000000       0.00000000       0.00000000          1
H         2.18839691       1.00585471       6.50942361         0.00000000       0.00000000       0.00000000          1
H        14.27389849       7.52189647       0.88614861         0.00000000       0.00000000       0.00000000          1
H         4.03126902       4.95492648      12.17079105         0.00000000       0.00000000       0.00000000          1
H         9.21810798      10.60444428       9.21202242         0.00000000       0.00000000       0.00000000          1
H         2.44462986       1.62137902      12.70227287         0.00000000       0.00000000       0.00000000          1
6
pbc=[F, F, F] list_num_par=6 frozen=false iter=159 energy=-0.05544396 Lattice="15.00000000 0.00000000 0.00000000 0.00000000 15.00000000 0.00000000 0.00000000 0.00000000 15.00000000" energy_frozen_part=0.00000000 Properties=species:S:1:pos:R:3:velocities:R:3:Z:I:1
H         6.52275224       1.03860202      13.76398870         0.00000000       0.00000000       0.00000000          1
H         2.04203283       3.15487735       5.38738718         0.00000000       0.00000000       0.00000000          1
H         8.15211240       2.49048953      10.84427817         0.00000000       0.00000000       0.00000000          1
H        14.05992756       4.47049894      10.09138896         0.00000000       0.00000000       0.00000000          1
H         1.21578805       7.10282583       2.36571190         0.00000000       0.00000000       0.00000000          1
H        14.74401980       1.10168247      13.16469684         0.00000000       0.00000000       0.00000000          1
6
pbc=[F, F, F] list_num_par=6 frozen=false iter=169 energy=-0.06268809 Lattice="15.00000000 0.00000000 0.00000000 0.00000000 15.00000000 0.00000000 0.00000000 0.00000000 15.00000000" energy_frozen_part=0.00000000 Properties=species:S:1:pos:R:3:velocities:R:3:Z:I:1
H         4.01070012       4.73644907       9.67302541         0.00000000       0.00000000       0.00000000          1
H         2.25184071       7.83752676       1.68967508         0.00000000       0.00000000       0.00000000          1
H        14.23076060       2.04802652       5.58157516         0.00000000       0.00000000       0.00000000          1
H         3.52437415      14.05944186       5.96395966         0.00000000       0.00000000       0.00000000          1
H        13.12547543      11.99503863      12.27401059         0.00000000       0.00000000       0.00000000          1
H        10.70334723      13.00834580      14.25472953         0.00000000       0.00000000       0.00000000          1
6
pbc=[F, F, F] list_num_par=6 frozen=false iter=179 energy=-0.07455052 Lattice="15.00000000 0.00000000 0.00000000 0.00000000 15.00000000 0.00000000 0.00000000 0.00000000 15.00000000" energy_frozen_part=0.00000000 Properties=species:S:1:pos:R:3:velocities:R:3:Z:I:1
H        14.56354981      11.34679273       8.55050205         0.00000000       0.00000000       0.00000000          1
H        11.42512678       6.69050408      12.11341621         0.00000000       0.00000000       0.00000000          1
H        12.52815273       8.61316693       8.74059301         0.00000000       0.00000000       0.00000000          1
H        14.16388323       0.19802295       3.81899513         0.00000000       0.00000000       0.00000000          1
H         4.01738737      12.31469837      13.18230674         0.00000000       0.00000000       0.00000000          1
H         6.94254039       7.70579576       2.22014910         0.00000000       0.00000000       0.00000000          1
6
pbc=[F, F, F] list_num_par=6 frozen=false iter=189 energy=-0.08060828 Lattice="15.00000000 0.00000000 0.00000000 0.00000000 15.00000000 0.00000000 0.00000000 0.00000000 15.00000000" energy_frozen_part=0.00000000 Properties=species:S:1:pos:R:3:velocities:R:3:Z:I:1
H         3.62578555       8.66542955       3.60338038         0.00000000       0.00000000       0.00000000          1
H         0.68237324      13.32778873       2.81868623         0.00000000       0.00000000       0.00000000          1
H         8.59984185       2.34638319       6.05182086         0.00000000       0.00000000       0.00000000          1
H        10.60838652       0.70388727       6.37496953         0.00000000       0.00000000       0.00000000          1
H         3.93624340       2.97521728      14.17404509         0.00000000       0.00000000       0.00000000          1
H         8.06779863      10.91054954       5.07039289         0.00000000       0.00000000       0.00000000          1
6
pbc=[F, F, F] list_num_par=6 frozen=false iter=199 energy=-0.08591991 Lattice="15.00000000 0.00000000 0.00000000 0.00000000 15.00000000 0.00000000 0.00000000 0.00000000 15.00000000" energy_frozen_part=0.00000000 Properties=species:S:1:pos:R:3:velocities:R:3:Z:I:1
H         8.97525715       9.65911811       8.32404699         0.00000000       0.00000000       0.00000000          1
H         7.57926420       9.24140396      10.37344177         0.00000000       0.00000000       0.00000000          1
H         9.27714729       8.41855024      13.18825666         0.00000000       0.00000000       0.00000000          1
H         5.76285968      10.78429618       4.46934219         0.00000000       0.00000000       0.00000000          1
H        12.23686228       8.91821473       1.73112200         0.00000000       0.00000000       0.00000000          1
H         6.83727291      13.54414212      14.26548702         0.00000000       0.00000000       0.00000000          1
6
pbc=[F, F, F] list_num_par=6 frozen=false iter=209 energy=-0.09109657 Lattice="15.00000000 0.00000000 0.00000000 0.00000000 15.00000000 0.00000000 0.00000000 0.00000000 15.00000000" energy_frozen_part=0.00000000 Properties=species:S:1:pos:R:3:velocities:R:3:Z:I:1
H        14.55713774       7.83693457       5.40702452         0.00000000       0.00000000       0.00000000          1
H         2.50548613       7.84094350      11.06614263         0.00000000       0.00000000       0.00000000          1
H         8.27373507       2.22670466      11.69726319         0.00000000       0.00000000       0.00000000          1
H        14.30632509       5.15912699      13.06620390         0.00000000       0.00000000       0.00000000          1
H         0.59819639      10.81295983       7.41482063         0.00000000       0.00000000       0.00000000          1
H        14.13149032       5.92696991      10.54715566         0.00000000       0.00000000       0.00000000          1
6
pbc=[F, F, F] list_num_par=6 frozen=false iter=219 energy=-0.09566672 Lattice="15.00000000 0.00000000 0.00000000 0.00000000 15.00000000 0.00000000 0.00000000 0.00000000 15.00000000" energy_frozen_part=0.00000000 Properties=species:S:1:pos:R:3:velocities:R:3:Z:I:1
H         2.32222888       0.65422429       9.91973153         0.00000000       0.00000000       0.00000000          1
H        13.47644027       1.90072420       7.38480869         0.00000000       0.00000000       0.00000000          1
H         2.31896299      10.63841050       0.76187648         0.00000000       0.00000000       0.00000000          1
H         4.79271571      11.17120535       2.37763580         0.00000000       0.00000000       0.00000000          1
H         8.61999030      13.85453775      10.86752748         0.00000000       0.00000000       0.00000000          1
H         1.98989300       5.32577632       8.42501842         0.00000000       0.00000000       0.00000000          1
6
pbc=[F, F, F] list_num_par=6 frozen=false iter=229 energy=-0.09966581 Lattice="15.00000000 0.00000000 0.00000000 0.00000000 15.00000000 0.00000000 0.00000000 0.00000000 15.00000000" energy_frozen_part=0.00000000 Properties=species:S:1:pos:R:3:velocities:R:3:Z:I:1
H         5.31645909      11.24630732       8.51130919         0.00000000       0.00000000       0.00000000          1
H         0.28806151      12.30482644      12.81949838         0.00000000       0.00000000       0.00000000          1
H         8.35212969       1.24951738       8.93505360         0.00000000       0.00000000       0.00000000          1
H         0.40483246       6.95350476       6.26649524         0.00000000       0.00000000       0.00000000          1
H        14.23321872       2.29645010       3.19257528         0.00000000       0.00000000       0.00000000          1
H         7.61654519       9.76914508       8.51198528         0.00000000       0.00000000       0.00000000          1
6
pbc=[F, F, F] list_num_par=6 frozen=false iter=239 energy=-0.10240701 Lattice="15.00000000 0.00000000 0.00000000 0.00000000 15.00000000 0.00000000 0.00000000 0.00000000 15.00000000" energy_frozen_part=0.00000000 Properties=species:S:1:pos:R:3:velocities:R:3:Z:I:1
H         9.76531815      11.71549801      14.34315471         0.00000000       0.00000000       0.00000000          1
H        14.51692278      12.13428865       0.71689435         0.00000000       0.00000000       0.00000000          1
H        12.42301807       1.92963577       1.58843017         0.00000000       0.00000000       0.00000000          1
H        14.16408593       9.26406306       6.14341753         0.00000000       0.00000000       0.00000000          1
H        12.37330415      14.56732317      10.46199305         0.00000000       0.00000000       0.00000000          1
H        13.16108572       7.51964602       8.25810428         0.00000000       0.00000000       0.00000000          1
6
pbc=[F, F, F] list_num_par=6 frozen=false iter=249 energy=-0.10461866 Lattice="15.00000000 0.00000000 0.00000000 0.00000000 15.00000000 0.00000000 0.00000000 0.00000000 15.00000000" energy_frozen_part=0.00000000 Properties=species:S:1:pos:R:3:velocities:R:3:Z:I:1
H        11.40997990      13.92485578      12.48101058         0.00000000       0.00000000       0.00000000          1
H        11.86915070       4.97924041       6.43413981         0.00000000       0.00000000       0.00000000          1
H         9.19950113       5.11682392       4.63631594         0.00000000       0.00000000       0.00000000          1
H        14.66304203      13.29192484      14.75568855         0.00000000       0.00000000       0.00000000          1
H        10.43370098       3.88384151      12.20002921         0.00000000       0.00000000       0.00000000          1
H        12.63475005       7.38683111      14.21748927         0.00000000       0.00000000       0.00000000          1
6
pbc=[F, F, F] list_num_par=6 frozen=false iter=259 energy=-0.10641134 Lattice="15.00000000 0.00000000 0.00000000 0.00000000 15.00000000 0.00000000 0.00000000 0.00000000 15.00000000" energy_frozen_part=0.00000000 Properties=species:S:1:pos:R:3:velocities:R:3:Z:I:1
H         9.90558833       9.66725704      10.09329217         0.00000000       0.00000000       0.00000000          1
H        11.15019492       7.47255426      13.36676943         0.00000000       0.00000000       0.00000000          1
H         8.58949900      10.71739242       8.06041155         0.00000000       0.00000000       0.00000000          1
H        13.01403339       2.60674449       1.71400619         0.00000000       0.00000000       0.00000000          1
H         2.44858356      11.84106814      11.96341441         0.00000000       0.00000000       0.00000000          1
H         6.29213682       9.09916906       3.78490522         0.00000000       0.00000000       0.00000000          1
6
pbc=[F, F, F] list_num_par=6 frozen=false iter=269 energy=-0.10919061 Lattice="15.00000000 0.00000000 0.00000000 0.00000000 15.00000000 0.00000000 0.00000000 0.00000000 15.00000000" energy_frozen_part=0.00000000 Properties=species:S:1:pos:R:3:velocities:R:3:Z:I:1
H         1.54813244       8.21920428       3.22779352         0.00000000       0.00000000       0.00000000          1
H        10.80447771      11.31093757      11.94793531         0.00000000       0.00000000       0.00000000          1
H         8.98311479      13.10219657      10.78033307         0.00000000       0.00000000       0.00000000          1
H        13.46283626      13.72577350       3.01367005         0.00000000       0.00000000       0.00000000          1
H         5.47520047       5.07005506      10.66796979         0.00000000       0.00000000       0.00000000          1
H         8.65863685      11.89182199       5.77763731         0.00000000       0.00000000       0.00000000          1
6
pbc=[F, F, F] list_num_par=6 frozen=false iter=279 energy=-0.11299856 Lattice="15.00000000 0.00000000 0.00000000 0.00000000 15.00000000 0.00000000 0.00000000 0.00000000 15.00000000" energy_frozen_part=0.00000000 Properties=species:S:1:pos:R:3:velocities:R:3:Z:I:1
H         3.98286428       5.47344794      13.14606517         0.00000000       0.00000000       0.00000000          1
H         2.43807859       0.32933049       3.67696716         0.00000000       0.00000000       0.00000000          1
H         5.97149642       3.09826622       5.88305942         0.00000000       0.00000000       0.00000000          1
H         9.65838476       7.99326469      10.81309014         0.00000000       0.00000000       0.00000000          1
H        12.35289206       7.56311330       9.53746706         0.00000000       0.00000000       0.00000000          1
H         8.22824170       1.54840654       9.19823854         0.00000000       0.00000000       0.00000000          1
6
pbc=[F, F, F] list_num_par=6 frozen=false iter=289 energy=-0.11585524 Lattice="15.00000000 0.00000000 0.00000000 0.00000000 15.00000000 0.00000000 0.00000000 0.00000000 15.00000000" energy_frozen_part=0.00000000 Properties=species:S:1:pos:R:3:velocities:R:3:Z:I:1
H         2.24645147       2.97735224       9.34155938         0.00000000       0.00000000       0.00000000          1
H        10.81438218      14.32232547       1.06703350         0.00000000       0.00000000       0.00000000          1
H         4.44441860       7.11521017       6.33667288         0.00000000       0.00000000       0.00000000          1
H         7.74392301       4.45767593      13.09322711         0.00000000       0.00000000       0.00000000          1
H         2.26433288       1.08734276       5.41735866         0.00000000       0.00000000       0.00000000          1
H         1.61166138       6.57044800       7.66080553         0.00000000       0.00000000       0.00000000          1
6
pbc=[F, F, F] list_num_par=6 frozen=false iter=299 energy=-0.11904046 Lattice="15.00000000 0.00000000 0.00000000 0.00000000 15.00000000 0.00000000 0.00000000 0.00000000 15.00000000" energy_frozen_part=0.00000000 Properties=species:S:1:pos:R:3:velocities:R:3:Z:I:1
H         6.04085026       4.84809010       7.04851751         0.00000000       0.00000000       0.00000000          1
H        12.54673199       4.02032823       2.08258503         0.00000000       0.00000000       0.00000000          1
H         3.19352844       8.72412148       5.92311684         0.00000000       0.00000000       0.00000000          1
H        11.84226717       5.18021330       4.41462749         0.00000000       0.00000000       0.00000000          1
H        11.15392148       4.93182134       8.99607172         0.00000000       0.00000000       0.00000000          1
H        14.63195093       0.11216138       6.57461183         0.00000000       0.00000000       0.00000000          1
6
pbc=[F, F, F] list_num_par=6 frozen=false iter=309 energy=-0.12159039 Lattice="15.00000000 0.00000000 0.00000000 0.00000000 15.00000000 0.00000000 0.00000000 0.00000000 15.00000000" energy_frozen_part=0.00000000 Properties=species:S:1:pos:R:3:velocities:R:3:Z:I:1
H         6.05793058      13.90113588      10.62170181         0.00000000       0.00000000       0.00000000          1
H         6.85176783      13.59146477      13.70431653         0.00000000       0.00000000       0.00000000          1