6
pbc=[F, F, F] list_num_par=6 frozen=false iter=20000 energy=-1.26974174 Lattice="15.00000000 0.00000000 0.00000000 0.00000000 15.00000000 0.00000000 0.00000000 0.00000000 15.00000000" energy_frozen_part=0.00000000 Properties=species:S:1:pos:R:3:velocities:R:3:Z:I:1
H        11.01306925       8.45490927       2.61924242         0.00000000       0.00000000       0.00000000          1
H        11.91437537       8.05893189       0.00484027         0.00000000       0.00000000       0.00000000          1
H        13.39232713       9.64509589       1.76667335         0.00000000       0.00000000       0.00000000          1
H        11.98492317       5.95424720       1.84048348         0.00000000       0.00000000       0.00000000          1
H        14.36417982       7.14443319       0.98791309         0.00000000       0.00000000       0.00000000          1
H        13.46286846       7.54040125       3.60231881         0.00000000       0.00000000       0.00000000          1
6
pbc=[F, F, F] list_num_par=6 frozen=false iter=20000 energy=-1.26974174 Lattice="15.00000000 0.00000000 0.00000000 0.00000000 15.00000000 0.00000000 0.00000000 0.00000000 15.00000000" energy_frozen_part=0.00000000 Properties=species:S:1:pos:R:3:velocities:R:3:Z:I:1
H        10.99897573       8.43600728       2.62343241         0.00000000       0.00000000       0.00000000          1
H        11.89870790       8.06722686       0.00450845         0.00000000       0.00000000       0.00000000          1
H        13.36056819       9.66177545       1.77217577         0.00000000       0.00000000       0.00000000          1
H        12.00094304       5.95274445       1.82735536         0.00000000       0.00000000       0.00000000          1
H        14.36253776       7.17851211       0.97609583         0.00000000       0.00000000       0.00000000          1
H        13.46280689       7.54729333       3.59502221         0.00000000       0.00000000       0.00000000          1
6
pbc=[F, F, F] list_num_par=6 frozen=false iter=20000 energy=-1.26974174 Lattice="15.00000000 0.00000000 0.00000000 0.00000000 15.00000000 0.00000000 0.00000000 0.00000000 15.00000000" energy_frozen_part=0.00000000 Properties=species:S:1:pos:R:3:velocities:R:3:Z:I:1
H        11.01308401       8.45470185       2.61917247         0.00000000       0.00000000       0.00000000          1
H        11.91448988       8.05888949       0.00476900         0.00000000       0.00000000       0.00000000          1
H        13.39226695       9.64509870       1.76669225         0.00000000       0.00000000       0.00000000          1
H        11.98514969       5.95414927       1.84034701         0.00000000       0.00000000       0.00000000          1
H        14.36433811       7.14454071       0.98787205         0.00000000       0.00000000       0.00000000          1
H        13.46293808       7.54035404       3.60227339         0.00000000       0.00000000       0.00000000          1
6
pbc=[F, F, F] list_num_par=6 frozen=false iter=20000 energy=-1.26974174 Lattice="15.00000000 0.00000000 0.00000000 0.00000000 15.00000000 0.00000000 0.00000000 0.00000000 15.00000000" energy_frozen_part=0.00000000 Properties=species:S:1:pos:R:3:velocities:R:3:Z:I:1
H        11.01311155       8.45478020       2.61928181         0.00000000       0.00000000       0.00000000          1
H        11.91442983       8.05875727       0.00488055         0.00000000       0.00000000       0.00000000          1
H        13.39228097       9.64509106       1.76663175         0.00000000       0.00000000       0.00000000          1
H        11.98513805       5.95415704       1.84062327         0.00000000       0.00000000       0.00000000          1
H        14.36430522       7.14446224       0.98798162         0.00000000       0.00000000       0.00000000          1
H        13.46298385       7.54049768       3.60237626         0.00000000       0.00000000       0.00000000          1
6
pbc=[F, F, F] list_num_par=6 frozen=false iter=20000 energy=-1.26974174 Lattice="15.00000000 0.00000000 0.00000000 0.00000000 15.00000000 0.00000000 0.00000000 0.00000000 15.00000000" energy_frozen_part=0.00000000 Properties=species:S:1:pos:R:3:velocities:R:3:Z:I:1
H        10.99901794       8.43599485       2.62347581         0.00000000       0.00000000       0.00000000          1
H        11.89868570       8.06725963       0.00452531         0.00000000       0.00000000       0.00000000          1
H        13.36059380       9.66178931       1.77217740         0.00000000       0.00000000       0.00000000          1
H        12.00098337       5.95274535       1.82733436         0.00000000       0.00000000       0.00000000          1
H        14.36255044       7.17854471       0.97603614         0.00000000       0.00000000       0.00000000          1
H        13.46287846       7.54727336       3.59498858         0.00000000       0.00000000       0.00000000          1
6
pbc=[F, F, F] list_num_par=6 frozen=false iter=20000 energy=-1.26974174 Lattice="15.00000000 0.00000000 0.00000000 0.00000000 15.00000000 0.00000000 0.00000000 0.00000000 15.00000000" energy_frozen_part=0.00000000 Properties=species:S:1:pos:R:3:velocities:R:3:Z:I:1
H        11.01311093       8.45496650       2.61919633         0.00000000       0.00000000       0.00000000          1
H        11.91445316       8.05896556       0.00480306         0.00000000       0.00000000       0.00000000          1
H        13.39238815       9.64512646       1.76663329         0.00000000       0.00000000       0.00000000          1
H        11.98496178       5.95429019       1.84046396         0.00000000       0.00000000       0.00000000          1
H        14.36423617       7.14445086       0.98790688         0.00000000       0.00000000       0.00000000          1
H        13.46289854       7.54045251       3.60229621         0.00000000       0.00000000       0.00000000          1
6
pbc=[F, F, F] list_num_par=6 frozen=false iter=20000 energy=-1.26974174 Lattice="15.00000000 0.00000000 0.00000000 0.00000000 15.00000000 0.00000000 0.00000000 0.00000000 15.00000000" energy_frozen_part=0.00000000 Properties=species:S:1:pos:R:3:velocities:R:3:Z:I:1
H        11.01308340       8.45471867       2.61915976         0.00000000       0.00000000       0.00000000          1
H        11.91450617       8.05887043       0.00477143         0.00000000       0.00000000       0.00000000          1
H        13.39228633       9.64508655       1.76670090         0.00000000       0.00000000       0.00000000          1
H        11.98514019       5.95414460       1.84036103         0.00000000       0.00000000       0.00000000          1
H        14.36434177       7.14451699       0.98790404         0.00000000       0.00000000       0.00000000          1
H        13.46291943       7.54035594       3.60229133         0.00000000       0.00000000       0.00000000          1
6
pbc=[F, F, F] list_num_par=6 frozen=false iter=20000 energy=-1.26974174 Lattice="15.00000000 0.00000000 0.00000000 0.00000000 15.00000000 0.00000000 0.00000000 0.00000000 15.00000000" energy_frozen_part=0.00000000 Properties=species:S:1:pos:R:3:velocities:R:3:Z:I:1
H        10.99901919       8.43599897       2.62347388         0.00000000       0.00000000       0.00000000          1
H        11.89869449       8.06726672       0.00452778         0.00000000       0.00000000       0.00000000          1
H        13.36058964       9.66180017       1.77218231         0.00000000       0.00000000       0.00000000          1
H        12.00098317       5.95274766       1.82734214         0.00000000       0.00000000       0.00000000          1
H        14.36255573       7.17855192       0.97604934         0.00000000       0.00000000       0.00000000          1
H        13.46288075       7.54728158       3.59499726         0.00000000       0.00000000       0.00000000          1
6
pbc=[F, F, F] list_num_par=6 frozen=false iter=20000 energy=-1.26974174 Lattice="15.00000000 0.00000000 0.00000000 0.00000000 15.00000000 0.00000000 0.00000000 0.00000000 15.00000000" energy_frozen_part=0.00000000 Properties=species:S:1:pos:R:3:velocities:R:3:Z:I:1
H        11.01310928       8.45477566       2.61928890         0.00000000       0.00000000       0.00000000          1
H        11.91441571       8.05876053       0.00488355         0.00000000       0.00000000       0.00000000          1
H        13.39227125       9.64509281       1.76663514         0.00000000       0.00000000       0.00000000          1
H        11.98513392       5.95415167       1.84061850         0.00000000       0.00000000       0.00000000          1
H        14.36429354       7.14446226       0.98796062         0.00000000       0.00000000       0.00000000          1
H        13.46299434       7.54049061       3.60236966         0.00000000       0.00000000       0.00000000          1
6
pbc=[F, F, F] list_num_par=6 frozen=false iter=20000 energy=-1.26974174 Lattice="15.00000000 0.00000000 0.00000000 0.00000000 15.00000000 0.00000000 0.00000000 0.00000000 15.00000000" energy_frozen_part=0.00000000 Properties=species:S:1:pos:R:3:velocities:R:3:Z:I:1
H        11.01311218       8.45496125       2.61919207         0.00000000       0.00000000       0.00000000          1
H        11.91442992       8.05894640       0.00478989         0.00000000       0.00000000       0.00000000          1
H        13.39237636       9.64511423       1.76661489         0.00000000       0.00000000       0.00000000          1
H        11.98495766       5.95428295       1.84045851         0.00000000       0.00000000       0.00000000          1
H        14.36423018       7.14444221       0.98788083         0.00000000       0.00000000       0.00000000          1
H        13.46290767       7.54044616       3.60228245         0.00000000       0.00000000       0.00000000          1
6
pbc=[F, F, F] list_num_par=6 frozen=false iter=20000 energy=-1.26974174 Lattice="15.00000000 0.00000000 0.00000000 0.00000000 15.00000000 0.00000000 0.00000000 0.00000000 15.00000000" energy_frozen_part=0.00000000 Properties=species:S:1:pos:R:3:velocities:R:3:Z:I:1
H        10.99897092       8.43601255       2.62344154         0.00000000       0.00000000       0.00000000          1
H        11.89870355       8.06721688       0.00452055         0.00000000       0.00000000       0.00000000          1
H        13.36057018       9.66177173       1.77217577         0.00000000       0.00000000       0.00000000          1
H        12.00093441       5.95273841       1.82737230         0.00000000       0.00000000       0.00000000          1
H        14.36253536       7.17850441       0.97610700         0.00000000       0.00000000       0.00000000          1
H        13.46280447       7.54728874       3.59502922         0.00000000       0.00000000       0.00000000          1
6
pbc=[F, F, F] list_num_par=6 frozen=false iter=20000 energy=-1.26974174 Lattice="15.00000000 0.00000000 0.00000000 0.00000000 15.00000000 0.00000000 0.00000000 0.00000000 15.00000000" energy_frozen_part=0.00000000 Properties=species:S:1:pos:R:3:velocities:R:3:Z:I:1
H        10.99902218       8.43601526       2.62346797         0.00000000       0.00000000       0.00000000          1
H        11.89866808       8.06724541       0.00451339         0.00000000       0.00000000       0.00000000          1
H        13.36059617       9.66177511       1.77215378         0.00000000       0.00000000       0.00000000          1
H        12.00095543       5.95274813       1.82734945         0.00000000       0.00000000       0.00000000          1
H        14.36252796       7.17851771       0.97603330         0.00000000       0.00000000       0.00000000          1
H        13.46287760       7.54727605       3.59498764         0.00000000       0.00000000       0.00000000          1
6
pbc=[F, F, F] list_num_par=6 frozen=false iter=20000 energy=-1.26974174 Lattice="15.00000000 0.00000000 0.00000000 0.00000000 15.00000000 0.00000000 0.00000000 0.00000000 15.00000000" energy_frozen_part=0.00000000 Properties=species:S:1:pos:R:3:velocities:R:3:Z:I:1
H        11.01308793       8.45476411       2.61926100         0.00000000       0.00000000       0.00000000          1
H        11.91439551       8.05872880       0.00486571         0.00000000       0.00000000       0.00000000          1
H        13.39224516       9.64508852       1.76659859         0.00000000       0.00000000       0.00000000          1
H        11.98512570       5.95413961       1.84062641         0.00000000       0.00000000       0.00000000          1
H        14.36427982       7.14445905       0.98795205         0.00000000       0.00000000       0.00000000          1
H        13.46297814       7.54050167       3.60235511         0.00000000       0.00000000       0.00000000          1
6
pbc=[F, F, F] list_num_par=6 frozen=false iter=20000 energy=-1.26974174 Lattice="15.00000000 0.00000000 0.00000000 0.00000000 15.00000000 0.00000000 0.00000000 0.00000000 15.00000000" energy_frozen_part=0.00000000 Properties=species:S:1:pos:R:3:velocities:R:3:Z:I:1
H        11.01305361       8.45489924       2.61923549         0.00000000       0.00000000       0.00000000          1
H        11.91438206       8.05892764       0.00483161         0.00000000       0.00000000       0.00000000          1
H        13.39231581       9.64509409       1.76667036         0.00000000       0.00000000       0.00000000          1
H        11.98493238       5.95424258       1.84047615         0.00000000       0.00000000       0.00000000          1
H        14.36418865       7.14443351       0.98791014         0.00000000       0.00000000       0.00000000          1
H        13.46285888       7.54040493       3.60231361         0.00000000       0.00000000       0.00000000          1
6
pbc=[F, F, F] list_num_par=6 frozen=false iter=20000 energy=-1.26974174 Lattice="15.00000000 0.00000000 0.00000000 0.00000000 15.00000000 0.00000000 0.00000000 0.00000000 15.00000000" energy_frozen_part=0.00000000 Properties=species:S:1:pos:R:3:velocities:R:3:Z:I:1
H        10.99900699       8.43599884       2.62344142         0.00000000       0.00000000       0.00000000          1
H        11.89869586       8.06722785       0.00449411         0.00000000       0.00000000       0.00000000          1
H        13.36058092       9.66178180       1.77215001         0.00000000       0.00000000       0.00000000          1
H        12.00096874       5.95273908       1.82733816         0.00000000       0.00000000       0.00000000          1
H        14.36254445       7.17852523       0.97604682         0.00000000       0.00000000       0.00000000          1
H        13.46285664       7.54728517       3.59498744         0.00000000       0.00000000       0.00000000          1
6
pbc=[F, F, F] list_num_par=6 frozen=false iter=20000 energy=-1.26974174 Lattice="15.00000000 0.00000000 0.00000000 0.00000000 15.00000000 0.00000000 0.00000000 0.00000000 15.00000000" energy_frozen_part=0.00000000 Properties=species:S:1:pos:R:3:velocities:R:3:Z:I:1
H        11.01307387       8.45471103       2.61915506         0.00000000       0.00000000       0.00000000          1
H        11.91449337       8.05887709       0.00477022         0.00000000       0.00000000       0.00000000          1
H        13.39226997       9.64509267       1.76669629         0.00000000       0.00000000       0.00000000          1
H        11.98514055       5.95414398       1.84035200         0.00000000       0.00000000       0.00000000          1
H        14.36433612       7.14452670       0.98789585         0.00000000       0.00000000       0.00000000          1
H        13.46291211       7.54035676       3.60228305         0.00000000       0.00000000       0.00000000          1
6
pbc=[F, F, F] list_num_par=6 frozen=false iter=20000 energy=-1.26974174 Lattice="15.00000000 0.00000000 0.00000000 0.00000000 15.00000000 0.00000000 0.00000000 0.00000000 15.00000000" energy_frozen_part=0.00000000 Properties=species:S:1:pos:R:3:velocities:R:3:Z:I:1
H        11.01309794       8.45477500       2.61928624         0.00000000       0.00000000       0.00000000          1
H        11.91437168       8.05872177       0.00487249         0.00000000       0.00000000       0.00000000          1
H        13.39223470       9.64510442       1.76657569         0.00000000       0.00000000       0.00000000          1
H        11.98513887       5.95414884       1.84063388         0.00000000       0.00000000       0.00000000          1
H        14.36427479       7.14447605       0.98793437         0.00000000       0.00000000       0.00000000          1
H        13.46300551       7.54052563       3.60234482         0.00000000       0.00000000       0.00000000          1
6
pbc=[F, F, F] list_num_par=6 frozen=false iter=20000 energy=-1.26974174 Lattice="15.00000000 0.00000000 0.00000000 0.00000000 15.00000000 0.00000000 0.00000000 0.00000000 15.00000000" energy_frozen_part=0.00000000 Properties=species:S:1:pos:R:3:velocities:R:3:Z:I:1
H        11.01316462       8.45486472       2.61936469         0.00000000       0.00000000       0.00000000          1
H        11.91431676       8.05891522       0.00489473         0.00000000       0.00000000       0.00000000          1
H        13.39235556       9.64507546       1.76665143         0.00000000       0.00000000       0.00000000          1
H        11.98499420       5.95421571       1.84052714         0.00000000       0.00000000       0.00000000          1
H        14.36418828       7.14442432       0.98780678         0.00000000       0.00000000       0.00000000          1
H        13.46303352       7.54037203       3.60227718         0.00000000       0.00000000       0.00000000          1
6
pbc=[F, F, F] list_num_par=6 frozen=false iter=20000 energy=-1.26974174 Lattice="15.00000000 0.00000000 0.00000000 0.00000000 15.00000000 0.00000000 0.00000000 0.00000000 15.00000000" energy_frozen_part=0.00000000 Properties=species:S:1:pos:R:3:velocities:R:3:Z:I:1
H        11.01310746       8.45470194       2.61916267         0.00000000       0.00000000       0.00000000          1
H        11.91453510       8.05891892       0.00476364         0.00000000       0.00000000       0.00000000          1
H        13.39232262       9.64507610       1.76673841         0.00000000       0.00000000       0.00000000          1
H        11.98514675       5.95413686       1.84030921         0.00000000       0.00000000       0.00000000          1
H        14.36435618       7.14451059       0.98788078         0.00000000       0.00000000       0.00000000          1
H        13.46293242       7.54029997       3.60227458         0.00000000       0.00000000       0.00000000          1
6
pbc=[F, F, F] list_num_par=6 frozen=false iter=20000 energy=-1.26974174 Lattice="15.00000000 0.00000000 0.00000000 0.00000000 15.00000000 0.00000000 0.00000000 0.00000000 15.00000000" energy_frozen_part=0.00000000 Properties=species:S:1:pos:R:3:velocities:R:3:Z:I:1
H        11.01316819       8.45487151       2.61936739         0.00000000       0.00000000       0.00000000          1
H        11.91431612       8.05890282       0.00490418         0.00000000       0.00000000       0.00000000          1
H        13.39237287       9.64506120       1.76664157         0.00000000       0.00000000       0.00000000          1
H        11.98498669       5.95421350       1.84054049         0.00000000       0.00000000       0.00000000          1
H        14.36418397       7.14440437       0.98781563         0.00000000       0.00000000       0.00000000          1
H        13.46304512       7.54037335       3.60227795         0.00000000       0.00000000       0.00000000          1
6
pbc=[F, F, F] list_num_par=6 frozen=false iter=20000 energy=-1.26974174 Lattice="15.00000000 0.00000000 0.00000000 0.00000000 15.00000000 0.00000000 0.00000000 0.00000000 15.00000000" energy_frozen_part=0.00000000 Properties=species:S:1:pos:R:3:velocities:R:3:Z:I:1
H        11.01311968       8.45478922       2.61928042         0.00000000       0.00000000       0.00000000          1
H        11.91440177       8.05872505       0.00487192         0.00000000       0.00000000       0.00000000          1
H        13.39227624       9.64509128       1.76657248         0.00000000       0.00000000       0.00000000          1
H        11.98513650       5.95415122       1.84064344         0.00000000       0.00000000       0.00000000          1
H        14.36429365       7.14444979       0.98793780         0.00000000       0.00000000       0.00000000          1
H        13.46301621       7.54052437       3.60234169         0.00000000       0.00000000       0.00000000          1
6
pbc=[F, F, F] list_num_par=6 frozen=false iter=20000 energy=-1.26974174 Lattice="15.00000000 0.00000000 0.00000000 0.00000000 15.00000000 0.00000000 0.00000000 0.00000000 15.00000000" energy_frozen_part=0.00000000 Properties=species:S:1:pos:R:3:velocities:R:3:Z:I:1
H        11.01309927       8.45469782       2.61919971         0.00000000       0.00000000       0.00000000          1
H        11.91450501       8.05890179       0.00479436         0.00000000       0.00000000       0.00000000          1
H        13.39229691       9.64508451       1.76673780         0.00000000       0.00000000       0.00000000          1
H        11.98515507       5.95414156       1.84034967         0.00000000       0.00000000       0.00000000          1
H        14.36435014       7.14453601       0.98788955         0.00000000       0.00000000       0.00000000          1
H        13.46294417       7.54032445       3.60229202         0.00000000       0.00000000       0.00000000          1
6
pbc=[F, F, F] list_num_par=6 frozen=false iter=20000 energy=-1.26974174 Lattice="15.00000000 0.00000000 0.00000000 0.00000000 15.00000000 0.00000000 0.00000000 0.00000000 15.00000000" energy_frozen_part=0.00000000 Properties=species:S:1:pos:R:3:velocities:R:3:Z:I:1
H        11.01309497       8.45492866       2.61918365         0.00000000       0.00000000       0.00000000          1
H        11.91446227       8.05894375       0.00479877         0.00000000       0.00000000       0.00000000          1
H        13.39236203       9.64511498       1.76665711         0.00000000       0.00000000       0.00000000          1
H        11.98496558       5.95426250       1.84045411         0.00000000       0.00000000       0.00000000          1
H        14.36424295       7.14444772       0.98792322         0.00000000       0.00000000       0.00000000          1
H        13.46287945       7.54042912       3.60231132         0.00000000       0.00000000       0.00000000          1
6
pbc=[F, F, F] list_num_par=6 frozen=false iter=20000 energy=-1.26974174 Lattice="15.00000000 0.00000000 0.00000000 0.00000000 15.00000000 0.00000000 0.00000000 0.00000000 15.00000000" energy_frozen_part=0.00000000 Properties=species:S:1:pos:R:3:velocities:R:3:Z:I:1
H        11.01309574       8.45473275       2.61920789         0.00000000       0.00000000       0.00000000          1
H        11.91450450       8.05888726       0.00481667         0.00000000       0.00000000       0.00000000          1
H        13.39228568       9.64511819       1.76672212         0.00000000       0.00000000       0.00000000          1
H        11.98516419       5.95416509       1.84041570         0.00000000       0.00000000       0.00000000          1
H        14.36434676       7.14454355       0.98792969         0.00000000       0.00000000       0.00000000          1
H        13.46294437       7.54039927       3.60232723         0.00000000       0.00000000       0.00000000          1
6
pbc=[F, F, F] list_num_par=6 frozen=false iter=20000 energy=-1.26974174 Lattice="15.00000000 0.00000000 0.00000000 0.00000000 15.00000000 0.00000000 0.00000000 0.00000000 15.00000000" energy_frozen_part=0.00000000 Properties=species:S:1:pos:R:3:velocities:R:3:Z:I:1
H        11.01310769       8.45471320       2.61915570         0.00000000       0.00000000       0.00000000          1
H        11.91454322       8.05891745       0.00476498         0.00000000       0.00000000       0.00000000          1
H        13.39233495       9.64507791       1.76673545         0.00000000       0.00000000       0.00000000          1
H        11.98514691       5.95414209       1.84031522         0.00000000       0.00000000       0.00000000          1
H        14.36436347       7.14451322       0.98788711         0.00000000       0.00000000       0.00000000          1
H        13.46292737       7.54030314       3.60228089         0.00000000       0.00000000       0.00000000          1
6
pbc=[F, F, F] list_num_par=6 frozen=false iter=20000 energy=-1.26974174 Lattice="15.00000000 0.00000000 0.00000000 0.00000000 15.00000000 0.00000000 0.00000000 0.00000000 15.00000000" energy_frozen_part=0.00000000 Properties=species:S:1:pos:R:3:velocities:R:3:Z:I:1
H        10.99900621       8.43600852       2.62345094         0.00000000       0.00000000       0.00000000          1
H        11.89868481       8.06723974       0.00451018         0.00000000       0.00000000       0.00000000          1
H        13.36059309       9.66176694       1.77215879         0.00000000       0.00000000       0.00000000          1
H        12.00094157       5.95274371       1.82734851         0.00000000       0.00000000       0.00000000          1
H        14.36253190       7.17849946       0.97605357         0.00000000       0.00000000       0.00000000          1
H        13.46285561       7.54726784       3.59499923         0.00000000       0.00000000       0.00000000          1
6
pbc=[F, F, F] list_num_par=6 frozen=false iter=20000 energy=-1.26974174 Lattice="15.00000000 0.00000000 0.00000000 0.00000000 15.00000000 0.00000000 0.00000000 0.00000000 15.00000000" energy_frozen_part=0.00000000 Properties=species:S:1:pos:R:3:velocities:R:3:Z:I:1
H        10.99900850       8.43601181       2.62343270         0.00000000       0.00000000       0.00000000          1
H        11.89870136       8.06726145       0.00449074         0.00000000       0.00000000       0.00000000          1
H        13.36058695       9.66179575       1.77215619         0.00000000       0.00000000       0.00000000          1
H        12.00097061       5.95276073       1.82732765         0.00000000       0.00000000       0.00000000          1
H        14.36254835       7.17854309       0.97604942         0.00000000       0.00000000       0.00000000          1
H        13.46285431       7.54729527       3.59499371         0.00000000       0.00000000       0.00000000          1
6
pbc=[F, F, F] list_num_par=6 frozen=false iter=20000 energy=-1.26974174 Lattice="15.00000000 0.00000000 0.00000000 0.00000000 15.00000000 0.00000000 0.00000000 0.00000000 15.00000000" energy_frozen_part=0.00000000 Properties=species:S:1:pos:R:3:velocities:R:3:Z:I:1
H        11.01309307       8.45471162       2.61918610         0.00000000       0.00000000       0.00000000          1
H        11.91449838       8.05889055       0.00479170         0.00000000       0.00000000       0.00000000          1
H        13.39230287       9.64507561       1.76672687         0.00000000       0.00000000       0.00000000          1
H        11.98513080       5.95413766       1.84035950         0.00000000       0.00000000       0.00000000          1
H        14.36433244       7.14450295       0.98790083         0.00000000       0.00000000       0.00000000          1
H        13.46292741       7.54032371       3.60229271         0.00000000       0.00000000       0.00000000          1
6
pbc=[F, F, F] list_num_par=6 frozen=false iter=20000 energy=-1.26974174 Lattice="15.00000000 0.00000000 0.00000000 0.00000000 15.00000000 0.00000000 0.00000000 0.00000000 15.00000000" energy_frozen_part=0.00000000 Properties=species:S:1:pos:R:3:velocities:R:3:Z:I:1
H        11.01310853       8.45469201       2.61920787         0.00000000       0.00000000       0.00000000          1
H        11.91445609       8.05885878       0.00479026         0.00000000       0.00000000       0.00000000          1
H        13.39228358       9.64506608       1.76667723         0.00000000       0.00000000       0.00000000          1
H        11.98514470       5.95412320       1.84037876         0.00000000       0.00000000       0.00000000          1
H        14.36431989       7.14450462       0.98784983         0.00000000       0.00000000       0.00000000          1
H        13.46296900       7.54032987       3.60226742         0.00000000       0.00000000       0.00000000          1
6
pbc=[F, F, F] list_num_par=6 frozen=false iter=20000 energy=-1.26974174 Lattice="15.00000000 0.00000000 0.00000000 0.00000000 15.00000000 0.00000000 0.00000000 0.00000000 15.00000000" energy_frozen_part=0.00000000 Properties=species:S:1:pos:R:3:velocities:R:3:Z:I:1
H        11.01310757       8.45478497       2.61927816         0.00000000       0.00000000       0.00000000          1
H        11.91438852       8.05874621       0.00487207         0.00000000       0.00000000       0.00000000          1
H        13.39226519       9.64509164       1.76660120         0.00000000       0.00000000       0.00000000          1
H        11.98511348       5.95415350       1.84062570         0.00000000       0.00000000       0.00000000          1
H        14.36427175       7.14445524       0.98795118         0.00000000       0.00000000       0.00000000          1
H        13.46298651       7.54050078       3.60235242         0.00000000       0.00000000       0.00000000          1
6
pbc=[F, F, F] list_num_par=6 frozen=false iter=20000 energy=-1.26974174 Lattice="15.00000000 0.00000000 0.00000000 0.00000000 15.00000000 0.00000000 0.00000000 0.00000000 15.00000000" energy_frozen_part=0.00000000 Properties=species:S:1:pos:R:3:velocities:R:3:Z:I:1
H        11.01310327       8.45477961       2.61930189         0.00000000       0.00000000       0.00000000          1
H        11.91443066       8.05878495       0.00490499         0.00000000       0.00000000       0.00000000          1