6
pbc=[F, F, F] list_num_par=6 energy=-1.26974174 iter=20000 frozen=false Lattice="15.00000000 0.00000000 0.00000000 0.00000000 15.00000000 0.00000000 0.00000000 0.00000000 15.00000000" energy_frozen_part=0.00000000 Properties=species:S:1:pos:R:3:velocities:R:3:Z:I:1
H        11.27741989       9.26282660       3.97042552         0.00000000       0.00000000       0.00000000          1
H        13.45288878       9.87630485       5.61214768         0.00000000       0.00000000       0.00000000          1
H        12.07487436       7.47124216       5.96004455         0.00000000       0.00000000       0.00000000          1
H        13.86649200       9.25007482       2.92122182         0.00000000       0.00000000       0.00000000          1
H        14.66394055       7.45848810       4.91084107         0.00000000       0.00000000       0.00000000          1
H        12.48846923       6.84501549       3.26911817         0.00000000       0.00000000       0.00000000          1
6
pbc=[F, F, F] list_num_par=6 energy=-1.26974174 iter=20000 frozen=false Lattice="15.00000000 0.00000000 0.00000000 0.00000000 15.00000000 0.00000000 0.00000000 0.00000000 15.00000000" energy_frozen_part=0.00000000 Properties=species:S:1:pos:R:3:velocities:R:3:Z:I:1
H        11.27043248       9.26733040       3.97412422         0.00000000       0.00000000       0.00000000          1
H        13.44896870       9.88425368       5.61048387         0.00000000       0.00000000       0.00000000          1
H        12.07460536       7.47775284       5.96284632         0.00000000       0.00000000       0.00000000          1
H        13.85708522       9.25707732       2.91893820         0.00000000       0.00000000       0.00000000          1
H        14.66125222       7.46750202       4.90766377         0.00000000       0.00000000       0.00000000          1
H        12.48271793       6.85057570       3.27130681         0.00000000       0.00000000       0.00000000          1
6
pbc=[F, F, F] list_num_par=6 energy=-1.26974174 iter=20000 frozen=false Lattice="15.00000000 0.00000000 0.00000000 0.00000000 15.00000000 0.00000000 0.00000000 0.00000000 15.00000000" energy_frozen_part=0.00000000 Properties=species:S:1:pos:R:3:velocities:R:3:Z:I:1
H        11.27044304       9.26736339       3.97412970         0.00000000       0.00000000       0.00000000          1
H        13.44901205       9.88423752       5.61046499         0.00000000       0.00000000       0.00000000          1
H        12.07459925       7.47776694       5.96284577         0.00000000       0.00000000       0.00000000          1
H        13.85709248       9.25705730       2.91892465         0.00000000       0.00000000       0.00000000          1
H        14.66123941       7.46745934       4.90764201         0.00000000       0.00000000       0.00000000          1
H        12.48267496       6.85058826       3.27129991         0.00000000       0.00000000       0.00000000          1
6
pbc=[F, F, F] list_num_par=6 energy=-1.26974174 iter=20000 frozen=false Lattice="15.00000000 0.00000000 0.00000000 0.00000000 15.00000000 0.00000000 0.00000000 0.00000000 15.00000000" energy_frozen_part=0.00000000 Properties=species:S:1:pos:R:3:velocities:R:3:Z:I:1
H        11.27044122       9.26733706       3.97412675         0.00000000       0.00000000       0.00000000          1
H        13.44897891       9.88424950       5.61047638         0.00000000       0.00000000       0.00000000          1
H        12.07460124       7.47776197       5.96284921         0.00000000       0.00000000       0.00000000          1
H        13.85709150       9.25706555       2.91893819         0.00000000       0.00000000       0.00000000          1
H        14.66125174       7.46749161       4.90766572         0.00000000       0.00000000       0.00000000          1
H        12.48271024       6.85057407       3.27131741         0.00000000       0.00000000       0.00000000          1
6
pbc=[F, F, F] list_num_par=6 energy=-1.26974174 iter=20000 frozen=false Lattice="15.00000000 0.00000000 0.00000000 0.00000000 15.00000000 0.00000000 0.00000000 0.00000000 15.00000000" energy_frozen_part=0.00000000 Properties=species:S:1:pos:R:3:velocities:R:3:Z:I:1
H        11.27728579       9.26262905       3.97041584         0.00000000       0.00000000       0.00000000          1
H        13.45283960       9.87636944       5.61192676         0.00000000       0.00000000       0.00000000          1
H        12.07506500       7.47119672       5.96003549         0.00000000       0.00000000       0.00000000          1
H        13.86627167       9.25006817       2.92099879         0.00000000       0.00000000       0.00000000          1
H        14.66405380       7.45863644       4.91062040         0.00000000       0.00000000       0.00000000          1
H        12.48849758       6.84489213       3.26910845         0.00000000       0.00000000       0.00000000          1
6
pbc=[F, F, F] list_num_par=6 energy=-1.26974174 iter=20000 frozen=false Lattice="15.00000000 0.00000000 0.00000000 0.00000000 15.00000000 0.00000000 0.00000000 0.00000000 15.00000000" energy_frozen_part=0.00000000 Properties=species:S:1:pos:R:3:velocities:R:3:Z:I:1
H        11.27742588       9.26283748       3.97043092         0.00000000       0.00000000       0.00000000          1
H        13.45290073       9.87629915       5.61216156         0.00000000       0.00000000       0.00000000          1
H        12.07487814       7.47123947       5.96003627         0.00000000       0.00000000       0.00000000          1
H        13.86650431       9.25008991       2.92123533         0.00000000       0.00000000       0.00000000          1
H        14.66394634       7.45848841       4.91083464         0.00000000       0.00000000       0.00000000          1
H        12.48847018       6.84502976       3.26910625         0.00000000       0.00000000       0.00000000          1
6
pbc=[F, F, F] list_num_par=6 energy=-1.26974174 iter=20000 frozen=false Lattice="15.00000000 0.00000000 0.00000000 0.00000000 15.00000000 0.00000000 0.00000000 0.00000000 15.00000000" energy_frozen_part=0.00000000 Properties=species:S:1:pos:R:3:velocities:R:3:Z:I:1
H        11.27742586       9.26283410       3.97044164         0.00000000       0.00000000       0.00000000          1
H        13.45290914       9.87628538       5.61216133         0.00000000       0.00000000       0.00000000          1
H        12.07487594       7.47123533       5.96004624         0.00000000       0.00000000       0.00000000          1
H        13.86649659       9.25006955       2.92123586         0.00000000       0.00000000       0.00000000          1
H        14.66394101       7.45846963       4.91083059         0.00000000       0.00000000       0.00000000          1
H        12.48845605       6.84501737       3.26911619         0.00000000       0.00000000       0.00000000          1
6
pbc=[F, F, F] list_num_par=6 energy=-1.26974174 iter=20000 frozen=false Lattice="15.00000000 0.00000000 0.00000000 0.00000000 15.00000000 0.00000000 0.00000000 0.00000000 15.00000000" energy_frozen_part=0.00000000 Properties=species:S:1:pos:R:3:velocities:R:3:Z:I:1
H        11.27041442       9.26734681       3.97412141         0.00000000       0.00000000       0.00000000          1
H        13.44898062       9.88425648       5.61044603         0.00000000       0.00000000       0.00000000          1
H        12.07457201       7.47778464       5.96285597         0.00000000       0.00000000       0.00000000          1
H        13.85706432       9.25703843       2.91891620         0.00000000       0.00000000       0.00000000          1
H        14.66121828       7.46747259       4.90765314         0.00000000       0.00000000       0.00000000          1
H        12.48265201       6.85056789       3.27132073         0.00000000       0.00000000       0.00000000          1
6
pbc=[F, F, F] list_num_par=6 energy=-1.26974174 iter=20000 frozen=false Lattice="15.00000000 0.00000000 0.00000000 0.00000000 15.00000000 0.00000000 0.00000000 0.00000000 15.00000000" energy_frozen_part=0.00000000 Properties=species:S:1:pos:R:3:velocities:R:3:Z:I:1
H        11.27764513       9.26310815       3.96852990         0.00000000       0.00000000       0.00000000          1
H        13.45257986       9.87705163       5.61078991         0.00000000       0.00000000       0.00000000          1
H        12.07405686       7.47236360       5.95932487         0.00000000       0.00000000       0.00000000          1
H        13.86712521       9.24945106       2.92033576         0.00000000       0.00000000       0.00000000          1
H        14.66353496       7.45871299       4.91113328         0.00000000       0.00000000       0.00000000          1
H        12.48859975       6.84477304       3.26886553         0.00000000       0.00000000       0.00000000          1
6
pbc=[F, F, F] list_num_par=6 energy=-1.26974174 iter=20000 frozen=false Lattice="15.00000000 0.00000000 0.00000000 0.00000000 15.00000000 0.00000000 0.00000000 0.00000000 15.00000000" energy_frozen_part=0.00000000 Properties=species:S:1:pos:R:3:velocities:R:3:Z:I:1
H        11.27743442       9.26292743       3.96887648         0.00000000       0.00000000       0.00000000          1
H        13.45250702       9.87738844       5.61076044         0.00000000       0.00000000       0.00000000          1
H        12.07448752       7.47246945       5.95967013         0.00000000       0.00000000       0.00000000          1
H        13.86675021       9.24969132       2.92028170         0.00000000       0.00000000       0.00000000          1
H        14.66381131       7.45923636       4.91107687         0.00000000       0.00000000       0.00000000          1
H        12.48874195       6.84476963       3.26919409         0.00000000       0.00000000       0.00000000          1
6
pbc=[F, F, F] list_num_par=6 energy=-1.26974174 iter=20000 frozen=false Lattice="15.00000000 0.00000000 0.00000000 0.00000000 15.00000000 0.00000000 0.00000000 0.00000000 15.00000000" energy_frozen_part=0.00000000 Properties=species:S:1:pos:R:3:velocities:R:3:Z:I:1
H        11.27046434       9.26738245       3.97431650         0.00000000       0.00000000       0.00000000          1
H        13.44909101       9.88438146       5.61051851         0.00000000       0.00000000       0.00000000          1
H        12.07478467       7.47787522       5.96304078         0.00000000       0.00000000       0.00000000          1
H        13.85704626       9.25713435       2.91897065         0.00000000       0.00000000       0.00000000          1
H        14.66137250       7.46763415       4.90769499         0.00000000       0.00000000       0.00000000          1
H        12.48274297       6.85062637       3.27149741         0.00000000       0.00000000       0.00000000          1
6
pbc=[F, F, F] list_num_par=6 energy=-1.26974174 iter=20000 frozen=false Lattice="15.00000000 0.00000000 0.00000000 0.00000000 15.00000000 0.00000000 0.00000000 0.00000000 15.00000000" energy_frozen_part=0.00000000 Properties=species:S:1:pos:R:3:velocities:R:3:Z:I:1
H        11.27741729       9.26288804       3.97051590         0.00000000       0.00000000       0.00000000          1
H        13.45306113       9.87631199       5.61202750         0.00000000       0.00000000       0.00000000          1
H        12.07491247       7.47136697       5.96017994         0.00000000       0.00000000       0.00000000          1
H        13.86640885       9.24989581       2.92111078         0.00000000       0.00000000       0.00000000          1
H        14.66389861       7.45838260       4.91077796         0.00000000       0.00000000       0.00000000          1
H        12.48825005       6.84495409       3.26926247         0.00000000       0.00000000       0.00000000          1
6
pbc=[F, F, F] list_num_par=6 energy=-1.26974174 iter=20000 frozen=false Lattice="15.00000000 0.00000000 0.00000000 0.00000000 15.00000000 0.00000000 0.00000000 0.00000000 15.00000000" energy_frozen_part=0.00000000 Properties=species:S:1:pos:R:3:velocities:R:3:Z:I:1
H        11.27041873       9.26735408       3.97412542         0.00000000       0.00000000       0.00000000          1
H        13.44898933       9.88425716       5.61044951         0.00000000       0.00000000       0.00000000          1
H        12.07457299       7.47778599       5.96285845         0.00000000       0.00000000       0.00000000          1
H        13.85706099       9.25703676       2.91891635         0.00000000       0.00000000       0.00000000          1
H        14.66121493       7.46747490       4.90765572         0.00000000       0.00000000       0.00000000          1
H        12.48264943       6.85056986       3.27132239         0.00000000       0.00000000       0.00000000          1
6
pbc=[F, F, F] list_num_par=6 energy=-1.26974174 iter=20000 frozen=false Lattice="15.00000000 0.00000000 0.00000000 0.00000000 15.00000000 0.00000000 0.00000000 0.00000000 15.00000000" energy_frozen_part=0.00000000 Properties=species:S:1:pos:R:3:velocities:R:3:Z:I:1
H        11.27743692       9.26274073       3.97049811         0.00000000       0.00000000       0.00000000          1
H        13.45288138       9.87629005       5.61222741         0.00000000       0.00000000       0.00000000          1
H        12.07500031       7.47114892       5.96006383         0.00000000       0.00000000       0.00000000          1
H        13.86650382       9.25015555       2.92128906         0.00000000       0.00000000       0.00000000          1
H        14.66406942       7.45856718       4.91085191         0.00000000       0.00000000       0.00000000          1
H        12.48861495       6.84501147       3.26912799         0.00000000       0.00000000       0.00000000          1
6
pbc=[F, F, F] list_num_par=6 energy=-1.26974174 iter=20000 frozen=false Lattice="15.00000000 0.00000000 0.00000000 0.00000000 15.00000000 0.00000000 0.00000000 0.00000000 15.00000000" energy_frozen_part=0.00000000 Properties=species:S:1:pos:R:3:velocities:R:3:Z:I:1
H        11.27735593       9.26284479       3.97057475         0.00000000       0.00000000       0.00000000          1
H        13.45290145       9.87630900       5.61219712         0.00000000       0.00000000       0.00000000          1
H        12.07493697       7.47121988       5.96010664         0.00000000       0.00000000       0.00000000          1
H        13.86637476       9.25015084       2.92124065         0.00000000       0.00000000       0.00000000          1
H        14.66396052       7.45853689       4.91077623         0.00000000       0.00000000       0.00000000          1
H        12.48840701       6.84506080       3.26915393         0.00000000       0.00000000       0.00000000          1
6
pbc=[F, F, F] list_num_par=6 energy=-1.26974174 iter=20000 frozen=false Lattice="15.00000000 0.00000000 0.00000000 0.00000000 15.00000000 0.00000000 0.00000000 0.00000000 15.00000000" energy_frozen_part=0.00000000 Properties=species:S:1:pos:R:3:velocities:R:3:Z:I:1
H        11.27743909       9.26292208       3.96886882         0.00000000       0.00000000       0.00000000          1
H        13.45250583       9.87739733       5.61075257         0.00000000       0.00000000       0.00000000          1
H        12.07449611       7.47247954       5.95967881         0.00000000       0.00000000       0.00000000          1
H        13.86676362       9.24967955       2.92028791         0.00000000       0.00000000       0.00000000          1
H        14.66381428       7.45923834       4.91109219         0.00000000       0.00000000       0.00000000          1
H        12.48874937       6.84476457       3.26920659         0.00000000       0.00000000       0.00000000          1
6
pbc=[F, F, F] list_num_par=6 energy=-1.26974174 iter=20000 frozen=false Lattice="15.00000000 0.00000000 0.00000000 0.00000000 15.00000000 0.00000000 0.00000000 0.00000000 15.00000000" energy_frozen_part=0.00000000 Properties=species:S:1:pos:R:3:velocities:R:3:Z:I:1
H        11.27742620       9.26283274       3.97044055         0.00000000       0.00000000       0.00000000          1
H        13.45290956       9.87628454       5.61215832         0.00000000       0.00000000       0.00000000          1
H        12.07487662       7.47122957       5.96004641         0.00000000       0.00000000       0.00000000          1
H        13.86649659       9.25006955       2.92123586         0.00000000       0.00000000       0.00000000          1
H        14.66394360       7.45846747       4.91083590         0.00000000       0.00000000       0.00000000          1
H        12.48846049       6.84501279       3.26911528         0.00000000       0.00000000       0.00000000          1
6
pbc=[F, F, F] list_num_par=6 energy=-1.26974174 iter=20000 frozen=false Lattice="15.00000000 0.00000000 0.00000000 0.00000000 15.00000000 0.00000000 0.00000000 0.00000000 15.00000000" energy_frozen_part=0.00000000 Properties=species:S:1:pos:R:3:velocities:R:3:Z:I:1
H        11.27735908       9.26282902       3.97051939         0.00000000       0.00000000       0.00000000          1
H        13.45290691       9.87632688       5.61213020         0.00000000       0.00000000       0.00000000          1
H        12.07493571       7.47125821       5.96010613         0.00000000       0.00000000       0.00000000          1
H        13.86637906       9.25009440       2.92118795         0.00000000       0.00000000       0.00000000          1
H        14.66395381       7.45853077       4.91077237         0.00000000       0.00000000       0.00000000          1
H        12.48839827       6.84502270       3.26916568         0.00000000       0.00000000       0.00000000          1
6
pbc=[F, F, F] list_num_par=6 energy=-1.26974174 iter=20000 frozen=false Lattice="15.00000000 0.00000000 0.00000000 0.00000000 15.00000000 0.00000000 0.00000000 0.00000000 15.00000000" energy_frozen_part=0.00000000 Properties=species:S:1:pos:R:3:velocities:R:3:Z:I:1
H        11.27744813       9.26272058       3.97049478         0.00000000       0.00000000       0.00000000          1
H        13.45287998       9.87627618       5.61223892         0.00000000       0.00000000       0.00000000          1
H        12.07500109       7.47113201       5.96006821         0.00000000       0.00000000       0.00000000          1
H        13.86652399       9.25014339       2.92129601         0.00000000       0.00000000       0.00000000          1
H        14.66407649       7.45855363       4.91086853         0.00000000       0.00000000       0.00000000          1
H        12.48863458       6.84499475       3.26913191         0.00000000       0.00000000       0.00000000          1
6
pbc=[F, F, F] list_num_par=6 energy=-1.26974174 iter=20000 frozen=false Lattice="15.00000000 0.00000000 0.00000000 0.00000000 15.00000000 0.00000000 0.00000000 0.00000000 15.00000000" energy_frozen_part=0.00000000 Properties=species:S:1:pos:R:3:velocities:R:3:Z:I:1
H        11.27728585       9.26262379       3.97040480         0.00000000       0.00000000       0.00000000          1
H        13.45283677       9.87636854       5.61192214         0.00000000       0.00000000       0.00000000          1
H        12.07506392       7.47119786       5.96003484         0.00000000       0.00000000       0.00000000          1
H        13.86628271       9.25006587       2.92100142         0.00000000       0.00000000       0.00000000          1
H        14.66405760       7.45863780       4.91062763         0.00000000       0.00000000       0.00000000          1
H        12.48850955       6.84489682       3.26910262         0.00000000       0.00000000       0.00000000          1
6
pbc=[F, F, F] list_num_par=6 energy=-1.26974174 iter=20000 frozen=false Lattice="15.00000000 0.00000000 0.00000000 0.00000000 15.00000000 0.00000000 0.00000000 0.00000000 15.00000000" energy_frozen_part=0.00000000 Properties=species:S:1:pos:R:3:velocities:R:3:Z:I:1
H        11.27736290       9.26282267       3.97053005         0.00000000       0.00000000       0.00000000          1
H        13.45291713       9.87631534       5.61213906         0.00000000       0.00000000       0.00000000          1
H        12.07493737       7.47124189       5.96010592         0.00000000       0.00000000       0.00000000          1
H        13.86637906       9.25009440       2.92118795         0.00000000       0.00000000       0.00000000          1
H        14.66395515       7.45852226       4.91076604         0.00000000       0.00000000       0.00000000          1
H        12.48839910       6.84502404       3.26915670         0.00000000       0.00000000       0.00000000          1
6
pbc=[F, F, F] list_num_par=6 energy=-1.26974174 iter=20000 frozen=false Lattice="15.00000000 0.00000000 0.00000000 0.00000000 15.00000000 0.00000000 0.00000000 0.00000000 15.00000000" energy_frozen_part=0.00000000 Properties=species:S:1:pos:R:3:velocities:R:3:Z:I:1
H        11.27766437       9.26312219       3.96852574         0.00000000       0.00000000       0.00000000          1
H        13.45259108       9.87706046       5.61078855         0.00000000       0.00000000       0.00000000          1
H        12.07405470       7.47239038       5.95933829         0.00000000       0.00000000       0.00000000          1
H        13.86714125       9.24944621       2.92033263         0.00000000       0.00000000       0.00000000          1
H        14.66353282       7.45871281       4.91114991         0.00000000       0.00000000       0.00000000          1
H        12.48860639       6.84477596       3.26888436         0.00000000       0.00000000       0.00000000          1
6
pbc=[F, F, F] list_num_par=6 energy=-1.26974174 iter=20000 frozen=false Lattice="15.00000000 0.00000000 0.00000000 0.00000000 15.00000000 0.00000000 0.00000000 0.00000000 15.00000000" energy_frozen_part=0.00000000 Properties=species:S:1:pos:R:3:velocities:R:3:Z:I:1
H        11.27742411       9.26273860       3.97051012         0.00000000       0.00000000       0.00000000          1
H        13.45287979       9.87628029       5.61223815         0.00000000       0.00000000       0.00000000          1
H        12.07499530       7.47113856       5.96006316         0.00000000       0.00000000       0.00000000          1
H        13.86648990       9.25017326       2.92129245         0.00000000       0.00000000       0.00000000          1
H        14.66406321       7.45856225       4.91083925         0.00000000       0.00000000       0.00000000          1
H        12.48860893       6.84502557       3.26911421         0.00000000       0.00000000       0.00000000          1
6
pbc=[F, F, F] list_num_par=6 energy=-1.26974174 iter=20000 frozen=false Lattice="15.00000000 0.00000000 0.00000000 0.00000000 15.00000000 0.00000000 0.00000000 0.00000000 15.00000000" energy_frozen_part=0.00000000 Properties=species:S:1:pos:R:3:velocities:R:3:Z:I:1
H        11.27736791       9.26290965       3.97061053         0.00000000       0.00000000       0.00000000          1
H        13.45295352       9.87630742       5.61221091         0.00000000       0.00000000       0.00000000          1
H        12.07493865       7.47124524       5.96010965         0.00000000       0.00000000       0.00000000          1
H        13.86637551       9.25017632       2.92124378         0.00000000       0.00000000       0.00000000          1
H        14.66395025       7.45851654       4.91074471         0.00000000       0.00000000       0.00000000          1
H        12.48836459       6.84511805       3.26914482         0.00000000       0.00000000       0.00000000          1
6
pbc=[F, F, F] list_num_par=6 energy=-1.26974174 iter=20000 frozen=false Lattice="15.00000000 0.00000000 0.00000000 0.00000000 15.00000000 0.00000000 0.00000000 0.00000000 15.00000000" energy_frozen_part=0.00000000 Properties=species:S:1:pos:R:3:velocities:R:3:Z:I:1
H        11.27741333       9.26265443       3.97047688         0.00000000       0.00000000       0.00000000          1
H        13.45280878       9.87631965       5.61223319         0.00000000       0.00000000       0.00000000          1
H        12.07503939       7.47111097       5.96006174         0.00000000       0.00000000       0.00000000          1
H        13.86649626       9.25019441       2.92130667         0.00000000       0.00000000       0.00000000          1
H        14.66412404       7.45864751       4.91088507         0.00000000       0.00000000       0.00000000          1
H        12.48872849       6.84498356       3.26913110         0.00000000       0.00000000       0.00000000          1
6
pbc=[F, F, F] list_num_par=6 energy=-1.26974174 iter=20000 frozen=false Lattice="15.00000000 0.00000000 0.00000000 0.00000000 15.00000000 0.00000000 0.00000000 0.00000000 15.00000000" energy_frozen_part=0.00000000 Properties=species:S:1:pos:R:3:velocities:R:3:Z:I:1
H        11.27749208       9.26292291       3.96881465         0.00000000       0.00000000       0.00000000          1
H        13.45252925       9.87739707       5.61073391         0.00000000       0.00000000       0.00000000          1
H        12.07447910       7.47250723       5.95967649         0.00000000       0.00000000       0.00000000          1
H        13.86684169       9.24962501       2.92028670         0.00000000       0.00000000       0.00000000          1
H        14.66381919       7.45920961       4.91114552         0.00000000       0.00000000       0.00000000          1
H        12.48878408       6.84473683       3.26922008         0.00000000       0.00000000       0.00000000          1
6
pbc=[F, F, F] list_num_par=6 energy=-1.26974174 iter=20000 frozen=false Lattice="15.00000000 0.00000000 0.00000000 0.00000000 15.00000000 0.00000000 0.00000000 0.00000000 15.00000000" energy_frozen_part=0.00000000 Properties=species:S:1:pos:R:3:velocities:R:3:Z:I:1
H        11.27743520       9.26272569       3.97049582         0.00000000       0.00000000       0.00000000          1
H        13.45286997       9.87627228       5.61223506         0.00000000       0.00000000       0.00000000          1
H        12.07498801       7.47112672       5.96006045         0.00000000       0.00000000       0.00000000          1
H        13.86651509       9.25015109       2.92130172         0.00000000       0.00000000       0.00000000          1
H        14.66406027       7.45855293       4.91086392         0.00000000       0.00000000       0.00000000          1
H        12.48862453       6.84500508       3.26911861         0.00000000       0.00000000       0.00000000          1
6
pbc=[F, F, F] list_num_par=6 energy=-1.26974174 iter=20000 frozen=false Lattice="15.00000000 0.00000000 0.00000000 0.00000000 15.00000000 0.00000000 0.00000000 0.00000000 15.00000000" energy_frozen_part=0.00000000 Properties=species:S:1:pos:R:3:velocities:R:3:Z:I:1
H        11.27736862       9.26290957       3.97062757         0.00000000       0.00000000       0.00000000          1
H        13.45295372       9.87630103       5.61222404         0.00000000       0.00000000       0.00000000          1
H        12.07494283       7.47124114       5.96011960         0.00000000       0.00000000       0.00000000          1
H        13.86637089       9.25017985       2.92124495         0.00000000       0.00000000       0.00000000          1
H        14.66394135       7.45851123       4.91074335         0.00000000       0.00000000       0.00000000          1
H        12.48835417       6.84511928       3.26914606         0.00000000       0.00000000       0.00000000          1
6
pbc=[F, F, F] list_num_par=6 energy=-1.26974174 iter=20000 frozen=false Lattice="15.00000000 0.00000000 0.00000000 0.00000000 15.00000000 0.00000000 0.00000000 0.00000000 15.00000000" energy_frozen_part=0.00000000 Properties=species:S:1:pos:R:3:velocities:R:3:Z:I:1
H        11.27742309       9.26284254       3.97042301         0.00000000       0.00000000       0.00000000          1
H        13.45289108       9.87629625       5.61215127         0.00000000       0.00000000       0.00000000          1
H        12.07486372       7.47124054       5.96003282         0.00000000       0.00000000       0.00000000          1
H        13.86649641       9.25008881       2.92122189         0.00000000       0.00000000       0.00000000          1
H        14.66393873       7.45848812       4.91083061         0.00000000       0.00000000       0.00000000          1
H        12.48846621       6.84503352       3.26911053         0.00000000       0.00000000       0.00000000          1
6
pbc=[F, F, F] list_num_par=6 energy=-1.26974174 iter=20000 frozen=false Lattice="15.00000000 0.00000000 0.00000000 0.00000000 15.00000000 0.00000000 0.00000000 0.00000000 15.00000000" energy_frozen_part=0.00000000 Properties=species:S:1:pos:R:3:velocities:R:3:Z:I:1
H        11.27741483       9.26275280       3.97053436         0.00000000       0.00000000       0.00000000          1
H        13.45286765       9.87628973       5.61225911         0.00000000       0.00000000       0.00000000          1
H        12.07499314       7.47112899       5.96006333         0.00000000       0.00000000       0.00000000          1
H        13.86647430       9.25020240       2.92130856         0.00000000       0.00000000       0.00000000          1
H        14.66405021       7.45857877       4.91083588         0.00000000       0.00000000       0.00000000          1
H        12.48859531       6.84504490       3.26910857         0.00000000       0.00000000       0.00000000          1
6
pbc=[F, F, F] list_num_par=6 energy=-1.26974174 iter=20000 frozen=false Lattice="15.00000000 0.00000000 0.00000000 0.00000000 15.00000000 0.00000000 0.00000000 0.00000000 15.00000000" energy_frozen_part=0.00000000 Properties=species:S:1:pos:R:3:velocities:R:3:Z:I:1
H        11.27749511       9.26292315       3.96881521         0.00000000       0.00000000       0.00000000          1
H        13.45253386       9.87740224       5.61072959         0.00000000       0.00000000       0.00000000          1