6
pbc=[F, F, F] list_num_par=6 frozen=false iter=9 energy=81.41279539 Lattice="15.00000000 0.00000000 0.00000000 0.00000000 15.00000000 0.00000000 0.00000000 0.00000000 15.00000000" energy_frozen_part=0.00000000 Properties=species:S:1:pos:R:3:velocities:R:3:Z:I:1
H        12.14029971      13.32577710       4.00744528         0.00000000       0.00000000       0.00000000          1
H         6.51478221       1.84893802      11.31504457         0.00000000       0.00000000       0.00000000          1
H        13.32748657      14.92796081      14.08514067         0.00000000       0.00000000       0.00000000          1
H         3.52845403       0.52980859      14.84088066         0.00000000       0.00000000       0.00000000          1
H        11.21996336       2.99106857       2.82875828         0.00000000       0.00000000       0.00000000          1
H        11.09091924       4.53243789       3.22185738         0.00000000       0.00000000       0.00000000          1
6
pbc=[F, F, F] list_num_par=6 frozen=false iter=19 energy=0.16267765 Lattice="15.00000000 0.00000000 0.00000000 0.00000000 15.00000000 0.00000000 0.00000000 0.00000000 15.00000000" energy_frozen_part=0.00000000 Properties=species:S:1:pos:R:3:velocities:R:3:Z:I:1
H         8.17414074       0.08563782      12.91041996         0.00000000       0.00000000       0.00000000          1
H        13.02639086       9.78562244       8.56309465         0.00000000       0.00000000       0.00000000          1
H         5.12384702      13.48683527       7.50751638         0.00000000       0.00000000       0.00000000          1
H         5.91430014      12.74836575      11.07945110         0.00000000       0.00000000       0.00000000          1
H         6.18842879      14.93189696      11.96385100         0.00000000       0.00000000       0.00000000          1
H        14.77907260       3.85333050       4.31446255         0.00000000       0.00000000       0.00000000          1
6
pbc=[F, F, F] list_num_par=6 frozen=false iter=29 energy=-0.00240963 Lattice="15.00000000 0.00000000 0.00000000 0.00000000 15.00000000 0.00000000 0.00000000 0.00000000 15.00000000" energy_frozen_part=0.00000000 Properties=species:S:1:pos:R:3:velocities:R:3:Z:I:1
H         3.56978062       9.43383185       3.23278029         0.00000000       0.00000000       0.00000000          1
H         5.68519330       4.31341941      12.59285075         0.00000000       0.00000000       0.00000000          1
H         1.44065433       4.07222814       0.84427049         0.00000000       0.00000000       0.00000000          1
H        11.22782562      13.14014397       0.37649638         0.00000000       0.00000000       0.00000000          1
H        13.01351328       4.51606865      12.60034032         0.00000000       0.00000000       0.00000000          1
H        12.56145263       5.39812933       3.49122149         0.00000000       0.00000000       0.00000000          1
6
pbc=[F, F, F] list_num_par=6 frozen=false iter=39 energy=-0.00556900 Lattice="15.00000000 0.00000000 0.00000000 0.00000000 15.00000000 0.00000000 0.00000000 0.00000000 15.00000000" energy_frozen_part=0.00000000 Properties=species:S:1:pos:R:3:velocities:R:3:Z:I:1
H         9.16340970      14.55524265       9.19708020         0.00000000       0.00000000       0.00000000          1
H         7.87914721      12.81731262      14.36803035         0.00000000       0.00000000       0.00000000          1
H        13.59652754       0.80442489       0.85467497         0.00000000       0.00000000       0.00000000          1
H         5.64166600      13.60653544       1.01376840         0.00000000       0.00000000       0.00000000          1
H        12.45099935       3.65438472       6.66687445         0.00000000       0.00000000       0.00000000          1
H        14.77082008      11.17434111      10.76301636         0.00000000       0.00000000       0.00000000          1
6
pbc=[F, F, F] list_num_par=6 frozen=false iter=49 energy=-0.01080559 Lattice="15.00000000 0.00000000 0.00000000 0.00000000 15.00000000 0.00000000 0.00000000 0.00000000 15.00000000" energy_frozen_part=0.00000000 Properties=species:S:1:pos:R:3:velocities:R:3:Z:I:1
H         2.61814986      14.54412871       6.32395375         0.00000000       0.00000000       0.00000000          1
H         6.71723246       6.88367497       8.25877678         0.00000000       0.00000000       0.00000000          1
H         2.75015095       4.13477013      11.37891467         0.00000000       0.00000000       0.00000000          1
H         0.17055579      10.41786094       1.74686615         0.00000000       0.00000000       0.00000000          1
H         7.01469974      12.74999651       2.20564100         0.00000000       0.00000000       0.00000000          1
H        11.85903394       6.69569586       7.51009622         0.00000000       0.00000000       0.00000000          1
6
pbc=[F, F, F] list_num_par=6 frozen=false iter=59 energy=-0.01394706 Lattice="15.00000000 0.00000000 0.00000000 0.00000000 15.00000000 0.00000000 0.00000000 0.00000000 15.00000000" energy_frozen_part=0.00000000 Properties=species:S:1:pos:R:3:velocities:R:3:Z:I:1
H        11.39711404       5.19227717       3.90553484         0.00000000       0.00000000       0.00000000          1
H        13.24493566      13.14734885       8.04104421         0.00000000       0.00000000       0.00000000          1
H         2.80331003      14.07312266       8.21279773         0.00000000       0.00000000       0.00000000          1
H         7.68108948       4.97818694       6.21142005         0.00000000       0.00000000       0.00000000          1
H        11.94465626       1.48824838      12.27532646         0.00000000       0.00000000       0.00000000          1
H         1.53849607       2.97760692       1.68095183         0.00000000       0.00000000       0.00000000          1
6
pbc=[F, F, F] list_num_par=6 frozen=false iter=69 energy=-0.01879404 Lattice="15.00000000 0.00000000 0.00000000 0.00000000 15.00000000 0.00000000 0.00000000 0.00000000 15.00000000" energy_frozen_part=0.00000000 Properties=species:S:1:pos:R:3:velocities:R:3:Z:I:1
H        14.55983397      14.48977201       4.02336386         0.00000000       0.00000000       0.00000000          1
H         5.65093934       1.95227640      14.79402787         0.00000000       0.00000000       0.00000000          1
H         7.42072061      10.14640249      12.06569823         0.00000000       0.00000000       0.00000000          1
H         2.37798141      12.08180286       4.28270307         0.00000000       0.00000000       0.00000000          1
H         1.39328401       6.72093690      12.81505526         0.00000000       0.00000000       0.00000000          1
H         6.25710462      11.36357364       2.82544835         0.00000000       0.00000000       0.00000000          1
6
pbc=[F, F, F] list_num_par=6 frozen=false iter=79 energy=-0.02300337 Lattice="15.00000000 0.00000000 0.00000000 0.00000000 15.00000000 0.00000000 0.00000000 0.00000000 15.00000000" energy_frozen_part=0.00000000 Properties=species:S:1:pos:R:3:velocities:R:3:Z:I:1
H         3.73915726       3.44492002      13.29691550         0.00000000       0.00000000       0.00000000          1
H        11.79796028      11.50063978       0.33206465         0.00000000       0.00000000       0.00000000          1
H         5.05648879       4.12935861       8.29733782         0.00000000       0.00000000       0.00000000          1
H         0.49075055       6.18313041      13.61853772         0.00000000       0.00000000       0.00000000          1
H         5.53496152      10.22071333       8.95235477         0.00000000       0.00000000       0.00000000          1
H        14.70642913      14.96982273      13.49636946         0.00000000       0.00000000       0.00000000          1
6
pbc=[F, F, F] list_num_par=6 frozen=false iter=89 energy=-0.02589006 Lattice="15.00000000 0.00000000 0.00000000 0.00000000 15.00000000 0.00000000 0.00000000 0.00000000 15.00000000" energy_frozen_part=0.00000000 Properties=species:S:1:pos:R:3:velocities:R:3:Z:I:1
H         1.81824036       3.52811760      11.24053034         0.00000000       0.00000000       0.00000000          1
H        10.07435691      12.74068895      10.60212623         0.00000000       0.00000000       0.00000000          1
H         0.29780261       5.15325524       0.84883111         0.00000000       0.00000000       0.00000000          1
H         8.07482179      12.95851773       9.07384243         0.00000000       0.00000000       0.00000000          1
H         0.81935541      13.06789842      11.32576438         0.00000000       0.00000000       0.00000000          1
H         9.19889414       9.80695642       4.17515018         0.00000000       0.00000000       0.00000000          1
6
pbc=[F, F, F] list_num_par=6 frozen=false iter=99 energy=-0.03092423 Lattice="15.00000000 0.00000000 0.00000000 0.00000000 15.00000000 0.00000000 0.00000000 0.00000000 15.00000000" energy_frozen_part=0.00000000 Properties=species:S:1:pos:R:3:velocities:R:3:Z:I:1
H         9.29606705       8.27681585      14.34735852         0.00000000       0.00000000       0.00000000          1
H        10.23489290      13.56314141       0.71756069         0.00000000       0.00000000       0.00000000          1
H         6.50352776       5.81175849      12.75259262         0.00000000       0.00000000       0.00000000          1
H         2.56283063       9.26614407       3.90783182         0.00000000       0.00000000       0.00000000          1
H        13.61755891       6.05236719       3.60089018         0.00000000       0.00000000       0.00000000          1
H         4.10637285      10.04316392      13.34911760         0.00000000       0.00000000       0.00000000          1
6
pbc=[F, F, F] list_num_par=6 frozen=false iter=109 energy=-0.03281908 Lattice="15.00000000 0.00000000 0.00000000 0.00000000 15.00000000 0.00000000 0.00000000 0.00000000 15.00000000" energy_frozen_part=0.00000000 Properties=species:S:1:pos:R:3:velocities:R:3:Z:I:1
H         2.36698681       5.26934893       8.74853149         0.00000000       0.00000000       0.00000000          1
H         3.29836562      11.01680070       9.13238597         0.00000000       0.00000000       0.00000000          1
H        13.21219272      10.03267019       2.55831058         0.00000000       0.00000000       0.00000000          1
H         0.88969661       6.43672250       4.08978485         0.00000000       0.00000000       0.00000000          1
H         8.01601169       4.55366457       4.16184018         0.00000000       0.00000000       0.00000000          1
H         0.47471670       7.03124230      11.93609937         0.00000000       0.00000000       0.00000000          1
6
pbc=[F, F, F] list_num_par=6 frozen=false iter=119 energy=-0.03793089 Lattice="15.00000000 0.00000000 0.00000000 0.00000000 15.00000000 0.00000000 0.00000000 0.00000000 15.00000000" energy_frozen_part=0.00000000 Properties=species:S:1:pos:R:3:velocities:R:3:Z:I:1
H        14.33899430       7.62803323      11.57026962         0.00000000       0.00000000       0.00000000          1
H        10.52704915       7.63661117       4.34144379         0.00000000       0.00000000       0.00000000          1
H        14.28589407      14.88639367       1.52186037         0.00000000       0.00000000       0.00000000          1
H         8.47080461       8.39383481       7.95149749         0.00000000       0.00000000       0.00000000          1
H         5.37012667      13.83648335       0.69604524         0.00000000       0.00000000       0.00000000          1
H         5.68183029       9.96713253      10.48430199         0.00000000       0.00000000       0.00000000          1
6
pbc=[F, F, F] list_num_par=6 frozen=false iter=129 energy=-0.04381119 Lattice="15.00000000 0.00000000 0.00000000 0.00000000 15.00000000 0.00000000 0.00000000 0.00000000 15.00000000" energy_frozen_part=0.00000000 Properties=species:S:1:pos:R:3:velocities:R:3:Z:I:1
H         3.73209556      10.47482829       4.95259144         0.00000000       0.00000000       0.00000000          1
H         3.86037980       6.10936810       6.59688035         0.00000000       0.00000000       0.00000000          1
H         2.15434211       0.55114342       4.98605885         0.00000000       0.00000000       0.00000000          1
H         5.25125274       5.32651548       0.43574029         0.00000000       0.00000000       0.00000000          1
H         5.57308964       6.67342744      11.88472643         0.00000000       0.00000000       0.00000000          1
H         8.69596952       5.39841331      13.79284338         0.00000000       0.00000000       0.00000000          1
6
pbc=[F, F, F] list_num_par=6 frozen=false iter=139 energy=-0.04702211 Lattice="15.00000000 0.00000000 0.00000000 0.00000000 15.00000000 0.00000000 0.00000000 0.00000000 15.00000000" energy_frozen_part=0.00000000 Properties=species:S:1:pos:R:3:velocities:R:3:Z:I:1
H         9.03675377       2.97502654       3.90383352         0.00000000       0.00000000       0.00000000          1
H        10.41990751       4.02152115       9.65859986         0.00000000       0.00000000       0.00000000          1
H         9.20498944      11.09218926       1.21848148         0.00000000       0.00000000       0.00000000          1
H         5.49684897       2.81085488       4.59865902         0.00000000       0.00000000       0.00000000          1
H         5.89948712      13.04318204       8.97252471         0.00000000       0.00000000       0.00000000          1
H         0.77985863       1.22455801       6.02545856         0.00000000       0.00000000       0.00000000          1
6
pbc=[F, F, F] list_num_par=6 frozen=false iter=149 energy=-0.05101291 Lattice="15.00000000 0.00000000 0.00000000 0.00000000 15.00000000 0.00000000 0.00000000 0.00000000 15.00000000" energy_frozen_part=0.00000000 Properties=species:S:1:pos:R:3:velocities:R:3:Z:I:1
H         7.50684194       2.59320969       3.14517046         0.00000000       0.00000000       0.00000000          1
H        10.01651841       3.92605175       9.50332686         0.00000000       0.00000000       0.00000000          1
H        10.07815991      10.96128414       0.06634779         0.00000000       0.00000000       0.00000000          1
H         4.67148924       2.72189837       5.68258477         0.00000000       0.00000000       0.00000000          1
H         4.01379044      12.72744678       7.86817139         0.00000000       0.00000000       0.00000000          1
H         1.01621128       0.90797081       5.17246441         0.00000000       0.00000000       0.00000000          1
6
pbc=[F, F, F] list_num_par=6 frozen=false iter=159 energy=-0.05385329 Lattice="15.00000000 0.00000000 0.00000000 0.00000000 15.00000000 0.00000000 0.00000000 0.00000000 15.00000000" energy_frozen_part=0.00000000 Properties=species:S:1:pos:R:3:velocities:R:3:Z:I:1
H         9.56650559      10.01204803      13.47409551         0.00000000       0.00000000       0.00000000          1
H         9.96941794       6.43548545      13.78260523         0.00000000       0.00000000       0.00000000          1
H         5.34401157      11.96984072      13.28647266         0.00000000       0.00000000       0.00000000          1
H         1.45256515       7.83737481      12.88837836         0.00000000       0.00000000       0.00000000          1
H         1.93710615       4.71339628       4.52210911         0.00000000       0.00000000       0.00000000          1
H         9.70976322       0.43767283      14.72735276         0.00000000       0.00000000       0.00000000          1
6
pbc=[F, F, F] list_num_par=6 frozen=false iter=169 energy=-0.05972116 Lattice="15.00000000 0.00000000 0.00000000 0.00000000 15.00000000 0.00000000 0.00000000 0.00000000 15.00000000" energy_frozen_part=0.00000000 Properties=species:S:1:pos:R:3:velocities:R:3:Z:I:1
H        11.68284797       0.19321818      12.41221903         0.00000000       0.00000000       0.00000000          1
H         0.77631277      13.99034617       3.24330721         0.00000000       0.00000000       0.00000000          1
H        12.09987494      13.86837857       7.79244159         0.00000000       0.00000000       0.00000000          1
H        14.13050266       0.73389495      10.19643778         0.00000000       0.00000000       0.00000000          1
H         1.62398194       5.04802289      12.22823684         0.00000000       0.00000000       0.00000000          1
H         6.95589262      13.55849056       2.96858755         0.00000000       0.00000000       0.00000000          1
6
pbc=[F, F, F] list_num_par=6 frozen=false iter=179 energy=-0.06191026 Lattice="15.00000000 0.00000000 0.00000000 0.00000000 15.00000000 0.00000000 0.00000000 0.00000000 15.00000000" energy_frozen_part=0.00000000 Properties=species:S:1:pos:R:3:velocities:R:3:Z:I:1
H        14.66104940       3.31151708       8.89101095         0.00000000       0.00000000       0.00000000          1
H         4.10153573       5.36814283       6.19245814         0.00000000       0.00000000       0.00000000          1
H         5.45501814      12.86575908       8.67971070         0.00000000       0.00000000       0.00000000          1
H         0.38897343       3.13756239       1.88075551         0.00000000       0.00000000       0.00000000          1
H        10.91471325       4.30263040       4.71093207         0.00000000       0.00000000       0.00000000          1
H         2.37386853       8.01911178       4.97147056         0.00000000       0.00000000       0.00000000          1
6
pbc=[F, F, F] list_num_par=6 frozen=false iter=189 energy=-0.06550192 Lattice="15.00000000 0.00000000 0.00000000 0.00000000 15.00000000 0.00000000 0.00000000 0.00000000 15.00000000" energy_frozen_part=0.00000000 Properties=species:S:1:pos:R:3:velocities:R:3:Z:I:1
H         0.32504883      10.57927672      11.35693573         0.00000000       0.00000000       0.00000000          1
H         2.86467311      10.99566734      11.31681814         0.00000000       0.00000000       0.00000000          1
H        11.23432133      13.10198733       8.75811425         0.00000000       0.00000000       0.00000000          1
H         6.92616066      14.62453598       0.59229212         0.00000000       0.00000000       0.00000000          1
H        13.22901125       3.19140293       2.54673885         0.00000000       0.00000000       0.00000000          1
H         7.10439198       9.72666551       9.26241428         0.00000000       0.00000000       0.00000000          1
6
pbc=[F, F, F] list_num_par=6 frozen=false iter=199 energy=-0.07002206 Lattice="15.00000000 0.00000000 0.00000000 0.00000000 15.00000000 0.00000000 0.00000000 0.00000000 15.00000000" energy_frozen_part=0.00000000 Properties=species:S:1:pos:R:3:velocities:R:3:Z:I:1
H         3.08118756       8.45261666       9.22381817         0.00000000       0.00000000       0.00000000          1
H         5.18302239      10.79886519       0.79737801         0.00000000       0.00000000       0.00000000          1
H         0.09424448       9.48030380       9.87639295         0.00000000       0.00000000       0.00000000          1
H         3.78278037       0.06195815      14.95817552         0.00000000       0.00000000       0.00000000          1
H        12.33602419       8.41522548       7.19205749         0.00000000       0.00000000       0.00000000          1
H         7.28521894       4.41509335       5.54760583         0.00000000       0.00000000       0.00000000          1
6
pbc=[F, F, F] list_num_par=6 frozen=false iter=209 energy=-0.07527565 Lattice="15.00000000 0.00000000 0.00000000 0.00000000 15.00000000 0.00000000 0.00000000 0.00000000 15.00000000" energy_frozen_part=0.00000000 Properties=species:S:1:pos:R:3:velocities:R:3:Z:I:1
H         1.31658513       0.01016648       6.42855132         0.00000000       0.00000000       0.00000000          1
H         4.11030716       0.37445903      11.81763428         0.00000000       0.00000000       0.00000000          1
H         1.31425027       2.85549123       4.97782925         0.00000000       0.00000000       0.00000000          1
H        12.29387384       8.29927572      13.59312118         0.00000000       0.00000000       0.00000000          1
H         4.55077451      11.91669746      14.58817491         0.00000000       0.00000000       0.00000000          1
H         4.82631649       0.42016431       0.38228067         0.00000000       0.00000000       0.00000000          1
6
pbc=[F, F, F] list_num_par=6 frozen=false iter=219 energy=-0.07892259 Lattice="15.00000000 0.00000000 0.00000000 0.00000000 15.00000000 0.00000000 0.00000000 0.00000000 15.00000000" energy_frozen_part=0.00000000 Properties=species:S:1:pos:R:3:velocities:R:3:Z:I:1
H         2.89218320       4.73286841       1.92614710         0.00000000       0.00000000       0.00000000          1
H        14.55042384      14.77564936      12.63394000         0.00000000       0.00000000       0.00000000          1
H         8.76076192       1.90817647       5.43047636         0.00000000       0.00000000       0.00000000          1
H         8.30571616       4.94637049       6.60305714         0.00000000       0.00000000       0.00000000          1
H        13.03598551       1.92533604      10.34246846         0.00000000       0.00000000       0.00000000          1
H         7.09383218       0.09371549       9.37810395         0.00000000       0.00000000       0.00000000          1
6
pbc=[F, F, F] list_num_par=6 frozen=false iter=229 energy=-0.08416964 Lattice="15.00000000 0.00000000 0.00000000 0.00000000 15.00000000 0.00000000 0.00000000 0.00000000 15.00000000" energy_frozen_part=0.00000000 Properties=species:S:1:pos:R:3:velocities:R:3:Z:I:1
H         9.67843554      10.28831460       8.86242227         0.00000000       0.00000000       0.00000000          1
H         4.86774479      10.60408651      14.04478687         0.00000000       0.00000000       0.00000000          1
H        14.01330254       8.26077403       9.53353310         0.00000000       0.00000000       0.00000000          1
H         1.07789666      11.01394824       9.48165637         0.00000000       0.00000000       0.00000000          1
H        11.26057531       6.10686106       0.63361313         0.00000000       0.00000000       0.00000000          1
H        13.10351782      11.37599281      10.62240130         0.00000000       0.00000000       0.00000000          1
6
pbc=[F, F, F] list_num_par=6 frozen=false iter=239 energy=-0.08823828 Lattice="15.00000000 0.00000000 0.00000000 0.00000000 15.00000000 0.00000000 0.00000000 0.00000000 15.00000000" energy_frozen_part=0.00000000 Properties=species:S:1:pos:R:3:velocities:R:3:Z:I:1
H        12.01038667       0.24388012       7.47467594         0.00000000       0.00000000       0.00000000          1
H        11.74594558       5.17441771      10.42489383         0.00000000       0.00000000       0.00000000          1
H        13.89715707       0.91469743       3.67142816         0.00000000       0.00000000       0.00000000          1
H        12.20196236       3.21301776      13.07346403         0.00000000       0.00000000       0.00000000          1
H        10.98153418      14.71829902      12.41086982         0.00000000       0.00000000       0.00000000          1
H         8.94633998       6.90381628      14.44845966         0.00000000       0.00000000       0.00000000          1
6
pbc=[F, F, F] list_num_par=6 frozen=false iter=249 energy=-0.09418799 Lattice="15.00000000 0.00000000 0.00000000 0.00000000 15.00000000 0.00000000 0.00000000 0.00000000 15.00000000" energy_frozen_part=0.00000000 Properties=species:S:1:pos:R:3:velocities:R:3:Z:I:1
H         8.64434305      10.16976087       1.22922341         0.00000000       0.00000000       0.00000000          1
H        14.59658863      14.58484254      13.00451203         0.00000000       0.00000000       0.00000000          1
H         0.41536262       2.04677605       8.19284823         0.00000000       0.00000000       0.00000000          1
H         8.93699557      13.54216956       9.07864131         0.00000000       0.00000000       0.00000000          1
H         1.46029172      11.06530802      10.10747966         0.00000000       0.00000000       0.00000000          1
H         2.32840228       1.23031333      10.28945080         0.00000000       0.00000000       0.00000000          1
6
pbc=[F, F, F] list_num_par=6 frozen=false iter=259 energy=-0.09654998 Lattice="15.00000000 0.00000000 0.00000000 0.00000000 15.00000000 0.00000000 0.00000000 0.00000000 15.00000000" energy_frozen_part=0.00000000 Properties=species:S:1:pos:R:3:velocities:R:3:Z:I:1
H        11.68981132       1.28613457       6.31952085         0.00000000       0.00000000       0.00000000          1
H         8.86329672       7.10436009      10.41966212         0.00000000       0.00000000       0.00000000          1
H         8.75520034       6.71506945       7.77213921         0.00000000       0.00000000       0.00000000          1
H         4.04712463       7.11588431       4.19458007         0.00000000       0.00000000       0.00000000          1
H        14.96112168       7.79179299       1.74413731         0.00000000       0.00000000       0.00000000          1
H         4.28217297       1.04440538       5.29922083         0.00000000       0.00000000       0.00000000          1
6
pbc=[F, F, F] list_num_par=6 frozen=false iter=269 energy=-0.09895144 Lattice="15.00000000 0.00000000 0.00000000 0.00000000 15.00000000 0.00000000 0.00000000 0.00000000 15.00000000" energy_frozen_part=0.00000000 Properties=species:S:1:pos:R:3:velocities:R:3:Z:I:1
H        13.08718462       0.00925682       8.17810605         0.00000000       0.00000000       0.00000000          1
H         0.56784527      11.68302054       5.95508706         0.00000000       0.00000000       0.00000000          1
H        13.93234724       4.22791779      13.28406179         0.00000000       0.00000000       0.00000000          1
H         4.77447912       4.79274044      10.81881829         0.00000000       0.00000000       0.00000000          1
H        12.78129300       6.47371819      14.35624316         0.00000000       0.00000000       0.00000000          1
H         5.88850134      14.72487738      14.28973764         0.00000000       0.00000000       0.00000000          1
6
pbc=[F, F, F] list_num_par=6 frozen=false iter=279 energy=-0.10158954 Lattice="15.00000000 0.00000000 0.00000000 0.00000000 15.00000000 0.00000000 0.00000000 0.00000000 15.00000000" energy_frozen_part=0.00000000 Properties=species:S:1:pos:R:3:velocities:R:3:Z:I:1
H        10.73977261      13.06159974       2.53073267         0.00000000       0.00000000       0.00000000          1
H         8.75102882      11.69922582      14.80481387         0.00000000       0.00000000       0.00000000          1
H        12.66835107       2.93366640      14.58362415         0.00000000       0.00000000       0.00000000          1
H         3.47905400      13.68639169      14.25033650         0.00000000       0.00000000       0.00000000          1
H        13.95312346       6.43217746       7.29250345         0.00000000       0.00000000       0.00000000          1
H        12.52834872       7.60214373       9.31462963         0.00000000       0.00000000       0.00000000          1
6
pbc=[F, F, F] list_num_par=6 frozen=false iter=289 energy=-0.10444972 Lattice="15.00000000 0.00000000 0.00000000 0.00000000 15.00000000 0.00000000 0.00000000 0.00000000 15.00000000" energy_frozen_part=0.00000000 Properties=species:S:1:pos:R:3:velocities:R:3:Z:I:1
H        13.48151398       4.48361356       3.66468797         0.00000000       0.00000000       0.00000000          1
H         2.62474944      12.24141055       7.53231959         0.00000000       0.00000000       0.00000000          1
H         5.38203734      11.19180395      12.79289150         0.00000000       0.00000000       0.00000000          1
H         4.11309079      13.19880988      14.14333217         0.00000000       0.00000000       0.00000000          1
H         4.79729426       4.71028276       9.31464120         0.00000000       0.00000000       0.00000000          1
H         8.42972946       4.49143860       1.80218051         0.00000000       0.00000000       0.00000000          1
6
pbc=[F, F, F] list_num_par=6 frozen=false iter=299 energy=-0.10623162 Lattice="15.00000000 0.00000000 0.00000000 0.00000000 15.00000000 0.00000000 0.00000000 0.00000000 15.00000000" energy_frozen_part=0.00000000 Properties=species:S:1:pos:R:3:velocities:R:3:Z:I:1
H         2.69934262       3.42136667       5.67769043         0.00000000       0.00000000       0.00000000          1
H         1.67858266       5.28028257       7.63650846         0.00000000       0.00000000       0.00000000          1
H        14.65671049       0.77924660       7.45865484         0.00000000       0.00000000       0.00000000          1
H         7.54792621       6.13811941       7.05427461         0.00000000       0.00000000       0.00000000          1
H         5.09159203       1.14839466       1.13958731         0.00000000       0.00000000       0.00000000          1
H         0.78459392       4.22204888      14.90572506         0.00000000       0.00000000       0.00000000          1
6
pbc=[F, F, F] list_num_par=6 frozen=false iter=309 energy=-0.10771840 Lattice="15.00000000 0.00000000 0.00000000 0.00000000 15.00000000 0.00000000 0.00000000 0.00000000 15.00000000" energy_frozen_part=0.00000000 Properties=species:S:1:pos:R:3:velocities:R:3:Z:I:1
H         4.88244504       2.54032439      14.87214549         0.00000000       0.00000000       0.00000000          1
H        10.05344382       1.89779985       9.12644312         0.00000000       0.00000000       0.00000000          1