6
pbc=[F, F, F] list_num_par=6 frozen=false iter=20000 energy=-1.26974174 Lattice="15.00000000 0.00000000 0.00000000 0.00000000 15.00000000 0.00000000 0.00000000 0.00000000 15.00000000" energy_frozen_part=0.00000000 Properties=species:S:1:pos:R:3:velocities:R:3:Z:I:1
H         2.54377294      12.27659647      11.92483885         0.00000000       0.00000000       0.00000000          1
H         4.15951385      14.02436684      13.38734352         0.00000000       0.00000000       0.00000000          1
H         4.82267131      11.02423989      10.90380186         0.00000000       0.00000000       0.00000000          1
H         6.43841351      12.77202072      12.36630308         0.00000000       0.00000000       0.00000000          1
H         4.47919010      11.26312697      13.66590866         0.00000000       0.00000000       0.00000000          1
H         4.50299485      13.78549063      10.62523369         0.00000000       0.00000000       0.00000000          1
6
pbc=[F, F, F] list_num_par=6 frozen=false iter=20000 energy=-1.26974174 Lattice="15.00000000 0.00000000 0.00000000 0.00000000 15.00000000 0.00000000 0.00000000 0.00000000 15.00000000" energy_frozen_part=0.00000000 Properties=species:S:1:pos:R:3:velocities:R:3:Z:I:1
H         2.54390823      12.27672305      11.92684726         0.00000000       0.00000000       0.00000000          1
H         4.16074255      14.02532546      13.38715314         0.00000000       0.00000000       0.00000000          1
H         4.82204198      11.02390681      10.90468069         0.00000000       0.00000000       0.00000000          1
H         6.43887914      12.77251111      12.36498790         0.00000000       0.00000000       0.00000000          1
H         4.48073297      11.26423181      13.66693087         0.00000000       0.00000000       0.00000000          1
H         4.50205921      13.78499206      10.62489857         0.00000000       0.00000000       0.00000000          1
6
pbc=[F, F, F] list_num_par=6 frozen=false iter=20000 energy=-1.26974174 Lattice="15.00000000 0.00000000 0.00000000 0.00000000 15.00000000 0.00000000 0.00000000 0.00000000 15.00000000" energy_frozen_part=0.00000000 Properties=species:S:1:pos:R:3:velocities:R:3:Z:I:1
H         2.54377886      12.27658517      11.92484760         0.00000000       0.00000000       0.00000000          1
H         4.15951810      14.02436478      13.38734895         0.00000000       0.00000000       0.00000000          1
H         4.82266966      11.02423512      10.90380886         0.00000000       0.00000000       0.00000000          1
H         6.43841277      12.77201545      12.36630489         0.00000000       0.00000000       0.00000000          1
H         4.47919488      11.26311623      13.66592086         0.00000000       0.00000000       0.00000000          1
H         4.50299367      13.78548707      10.62524142         0.00000000       0.00000000       0.00000000          1
6
pbc=[F, F, F] list_num_par=6 frozen=false iter=20000 energy=-1.26974174 Lattice="15.00000000 0.00000000 0.00000000 0.00000000 15.00000000 0.00000000 0.00000000 0.00000000 15.00000000" energy_frozen_part=0.00000000 Properties=species:S:1:pos:R:3:velocities:R:3:Z:I:1
H         2.54395080      12.27669023      11.92685587         0.00000000       0.00000000       0.00000000          1
H         4.16074899      14.02534946      13.38714073         0.00000000       0.00000000       0.00000000          1
H         4.82210387      11.02389818      10.90469998         0.00000000       0.00000000       0.00000000          1
H         6.43890182      12.77255835      12.36498922         0.00000000       0.00000000       0.00000000          1
H         4.48078890      11.26426047      13.66694660         0.00000000       0.00000000       0.00000000          1
H         4.50206654      13.78498464      10.62488975         0.00000000       0.00000000       0.00000000          1
6
pbc=[F, F, F] list_num_par=6 frozen=false iter=20000 energy=-1.26974174 Lattice="15.00000000 0.00000000 0.00000000 0.00000000 15.00000000 0.00000000 0.00000000 0.00000000 15.00000000" energy_frozen_part=0.00000000 Properties=species:S:1:pos:R:3:velocities:R:3:Z:I:1
H         2.54376286      12.27658965      11.92488103         0.00000000       0.00000000       0.00000000          1
H         4.15954086      14.02434628      13.38736878         0.00000000       0.00000000       0.00000000          1
H         4.82263742      11.02423146      10.90379636         0.00000000       0.00000000       0.00000000          1
H         6.43841322      12.77199213      12.36628547         0.00000000       0.00000000       0.00000000          1
H         4.47920802      11.26308852      13.66590781         0.00000000       0.00000000       0.00000000          1
H         4.50296960      13.78547932      10.62524871         0.00000000       0.00000000       0.00000000          1
6
pbc=[F, F, F] list_num_par=6 frozen=false iter=20000 energy=-1.26974174 Lattice="15.00000000 0.00000000 0.00000000 0.00000000 15.00000000 0.00000000 0.00000000 0.00000000 15.00000000" energy_frozen_part=0.00000000 Properties=species:S:1:pos:R:3:velocities:R:3:Z:I:1
H         2.54371221      12.27638738      11.92476580         0.00000000       0.00000000       0.00000000          1
H         4.15923962      14.02430504      13.38733699         0.00000000       0.00000000       0.00000000          1
H         4.82276330      11.02430766      10.90372690         0.00000000       0.00000000       0.00000000          1
H         6.43829395      12.77221835      12.36631510         0.00000000       0.00000000       0.00000000          1
H         4.47920814      11.26308418      13.66583494         0.00000000       0.00000000       0.00000000          1
H         4.50279752      13.78552856      10.62523424         0.00000000       0.00000000       0.00000000          1
6
pbc=[F, F, F] list_num_par=6 frozen=false iter=20000 energy=-1.26974174 Lattice="15.00000000 0.00000000 0.00000000 0.00000000 15.00000000 0.00000000 0.00000000 0.00000000 15.00000000" energy_frozen_part=0.00000000 Properties=species:S:1:pos:R:3:velocities:R:3:Z:I:1
H         2.54370305      12.27640334      11.92475272         0.00000000       0.00000000       0.00000000          1
H         4.15923017      14.02433123      13.38733549         0.00000000       0.00000000       0.00000000          1
H         4.82276262      11.02430656      10.90375271         0.00000000       0.00000000       0.00000000          1
H         6.43828645      12.77222692      12.36633291         0.00000000       0.00000000       0.00000000          1
H         4.47917532      11.26310918      13.66585574         0.00000000       0.00000000       0.00000000          1
H         4.50280350      13.78552876      10.62523516         0.00000000       0.00000000       0.00000000          1
6
pbc=[F, F, F] list_num_par=6 frozen=false iter=20000 energy=-1.26974174 Lattice="15.00000000 0.00000000 0.00000000 0.00000000 15.00000000 0.00000000 0.00000000 0.00000000 15.00000000" energy_frozen_part=0.00000000 Properties=species:S:1:pos:R:3:velocities:R:3:Z:I:1
H         2.54392954      12.27686030      11.92686229         0.00000000       0.00000000       0.00000000          1
H         4.16085293      14.02535574      13.38720598         0.00000000       0.00000000       0.00000000          1
H         4.82199646      11.02400264      10.90459943         0.00000000       0.00000000       0.00000000          1
H         6.43892432      12.77249757      12.36493468         0.00000000       0.00000000       0.00000000          1
H         4.48075275      11.26424667      13.66686783         0.00000000       0.00000000       0.00000000          1
H         4.50209964      13.78511365      10.62492885         0.00000000       0.00000000       0.00000000          1
6
pbc=[F, F, F] list_num_par=6 frozen=false iter=20000 energy=-1.26974174 Lattice="15.00000000 0.00000000 0.00000000 0.00000000 15.00000000 0.00000000 0.00000000 0.00000000 15.00000000" energy_frozen_part=0.00000000 Properties=species:S:1:pos:R:3:velocities:R:3:Z:I:1
H         2.54372145      12.27656165      11.92475541         0.00000000       0.00000000       0.00000000          1
H         4.15936368      14.02442155      13.38728211         0.00000000       0.00000000       0.00000000          1
H         4.82269661      11.02425039      10.90382467         0.00000000       0.00000000       0.00000000          1
H         6.43832902      12.77211283      12.36635890         0.00000000       0.00000000       0.00000000          1
H         4.47910006      11.26318904      13.66591651         0.00000000       0.00000000       0.00000000          1
H         4.50294932      13.78548219      10.62518731         0.00000000       0.00000000       0.00000000          1
6
pbc=[F, F, F] list_num_par=6 frozen=false iter=20000 energy=-1.26974174 Lattice="15.00000000 0.00000000 0.00000000 0.00000000 15.00000000 0.00000000 0.00000000 0.00000000 15.00000000" energy_frozen_part=0.00000000 Properties=species:S:1:pos:R:3:velocities:R:3:Z:I:1
H         2.54372090      12.27655669      11.92475597         0.00000000       0.00000000       0.00000000          1
H         4.15936503      14.02442051      13.38728123         0.00000000       0.00000000       0.00000000          1
H         4.82268485      11.02424176      10.90382302         0.00000000       0.00000000       0.00000000          1
H         6.43832783      12.77210278      12.36634296         0.00000000       0.00000000       0.00000000          1
H         4.47910364      11.26318314      13.66590918         0.00000000       0.00000000       0.00000000          1
H         4.50294520      13.78547527      10.62518610         0.00000000       0.00000000       0.00000000          1
6
pbc=[F, F, F] list_num_par=6 frozen=false iter=20000 energy=-1.26974174 Lattice="15.00000000 0.00000000 0.00000000 0.00000000 15.00000000 0.00000000 0.00000000 0.00000000 15.00000000" energy_frozen_part=0.00000000 Properties=species:S:1:pos:R:3:velocities:R:3:Z:I:1
H         2.54393122      12.27684534      11.92685967         0.00000000       0.00000000       0.00000000          1
H         4.16084984      14.02535555      13.38719840         0.00000000       0.00000000       0.00000000          1
H         4.82200130      11.02399766      10.90460187         0.00000000       0.00000000       0.00000000          1
H         6.43892772      12.77249882      12.36493720         0.00000000       0.00000000       0.00000000          1
H         4.48074990      11.26424590      13.66686868         0.00000000       0.00000000       0.00000000          1
H         4.50209835      13.78510862      10.62493339         0.00000000       0.00000000       0.00000000          1
6
pbc=[F, F, F] list_num_par=6 frozen=false iter=20000 energy=-1.26974174 Lattice="15.00000000 0.00000000 0.00000000 0.00000000 15.00000000 0.00000000 0.00000000 0.00000000 15.00000000" energy_frozen_part=0.00000000 Properties=species:S:1:pos:R:3:velocities:R:3:Z:I:1
H         2.54392981      12.27661633      11.92683907         0.00000000       0.00000000       0.00000000          1
H         4.16067289      14.02531848      13.38712749         0.00000000       0.00000000       0.00000000          1
H         4.82212600      11.02387421      10.90471570         0.00000000       0.00000000       0.00000000          1
H         6.43887355      12.77257405      12.36501759         0.00000000       0.00000000       0.00000000          1
H         4.48077382      11.26424676      13.66695808         0.00000000       0.00000000       0.00000000          1
H         4.50202883      13.78494343      10.62489321         0.00000000       0.00000000       0.00000000          1
6
pbc=[F, F, F] list_num_par=6 frozen=false iter=20000 energy=-1.26974174 Lattice="15.00000000 0.00000000 0.00000000 0.00000000 15.00000000 0.00000000 0.00000000 0.00000000 15.00000000" energy_frozen_part=0.00000000 Properties=species:S:1:pos:R:3:velocities:R:3:Z:I:1
H         2.54374952      12.27659509      11.92485254         0.00000000       0.00000000       0.00000000          1
H         4.15950851      14.02435035      13.38737310         0.00000000       0.00000000       0.00000000          1
H         4.82263840      11.02424239      10.90379715         0.00000000       0.00000000       0.00000000          1
H         6.43839645      12.77200205      12.36630615         0.00000000       0.00000000       0.00000000          1
H         4.47916703      11.26309835      13.66590661         0.00000000       0.00000000       0.00000000          1
H         4.50296631      13.78549581      10.62526301         0.00000000       0.00000000       0.00000000          1
6
pbc=[F, F, F] list_num_par=6 frozen=false iter=20000 energy=-1.26974174 Lattice="15.00000000 0.00000000 0.00000000 0.00000000 15.00000000 0.00000000 0.00000000 0.00000000 15.00000000" energy_frozen_part=0.00000000 Properties=species:S:1:pos:R:3:velocities:R:3:Z:I:1
H         2.54392755      12.27662246      11.92683850         0.00000000       0.00000000       0.00000000          1
H         4.16066532      14.02531720      13.38713620         0.00000000       0.00000000       0.00000000          1
H         4.82213409      11.02388401      10.90471800         0.00000000       0.00000000       0.00000000          1
H         6.43886907      12.77258354      12.36502888         0.00000000       0.00000000       0.00000000          1
H         4.48076543      11.26424095      13.66695828         0.00000000       0.00000000       0.00000000          1
H         4.50203560      13.78495151      10.62489609         0.00000000       0.00000000       0.00000000          1
6
pbc=[F, F, F] list_num_par=6 frozen=false iter=20000 energy=-1.26974174 Lattice="15.00000000 0.00000000 0.00000000 0.00000000 15.00000000 0.00000000 0.00000000 0.00000000 15.00000000" energy_frozen_part=0.00000000 Properties=species:S:1:pos:R:3:velocities:R:3:Z:I:1
H         4.26980584      13.39534737      10.98800578         0.00000000       0.00000000       0.00000000          1
H         4.66676926      14.05566159      13.67328260         0.00000000       0.00000000       0.00000000          1
H         6.27852250      11.46208116      11.16645598         0.00000000       0.00000000       0.00000000          1
H         6.67549276      12.12240921      13.85172386         0.00000000       0.00000000       0.00000000          1
H         4.12882327      11.41151306      12.94985128         0.00000000       0.00000000       0.00000000          1
H         6.81647341      14.10623749      11.88987925         0.00000000       0.00000000       0.00000000          1
6
pbc=[F, F, F] list_num_par=6 frozen=false iter=20000 energy=-1.26974174 Lattice="15.00000000 0.00000000 0.00000000 0.00000000 15.00000000 0.00000000 0.00000000 0.00000000 15.00000000" energy_frozen_part=0.00000000 Properties=species:S:1:pos:R:3:velocities:R:3:Z:I:1
H         2.54395198      12.27682037      11.92676776         0.00000000       0.00000000       0.00000000          1
H         4.16080983      14.02530748      13.38720174         0.00000000       0.00000000       0.00000000          1
H         4.82207281      11.02401650      10.90454465         0.00000000       0.00000000       0.00000000          1
H         6.43893475      12.77250392      12.36497672         0.00000000       0.00000000       0.00000000          1
H         4.48074431      11.26419611      13.66680808         0.00000000       0.00000000       0.00000000          1
H         4.50215027      13.78512594      10.62493683         0.00000000       0.00000000       0.00000000          1
6
pbc=[F, F, F] list_num_par=6 frozen=false iter=20000 energy=-1.26974174 Lattice="15.00000000 0.00000000 0.00000000 0.00000000 15.00000000 0.00000000 0.00000000 0.00000000 15.00000000" energy_frozen_part=0.00000000 Properties=species:S:1:pos:R:3:velocities:R:3:Z:I:1
H         2.54407969      12.27667270      11.92702294         0.00000000       0.00000000       0.00000000          1
H         4.16075156      14.02549602      13.38725337         0.00000000       0.00000000       0.00000000          1
H         4.82232614      11.02403690      10.90487569         0.00000000       0.00000000       0.00000000          1
H         6.43899887      12.77286276      12.36511245         0.00000000       0.00000000       0.00000000          1
H         4.48101823      11.26444203      13.66712028         0.00000000       0.00000000       0.00000000          1
H         4.50207077      13.78509045      10.62500776         0.00000000       0.00000000       0.00000000          1
6
pbc=[F, F, F] list_num_par=6 frozen=false iter=20000 energy=-1.26974174 Lattice="15.00000000 0.00000000 0.00000000 0.00000000 15.00000000 0.00000000 0.00000000 0.00000000 15.00000000" energy_frozen_part=0.00000000 Properties=species:S:1:pos:R:3:velocities:R:3:Z:I:1
H         2.54393066      12.27660952      11.92683229         0.00000000       0.00000000       0.00000000          1
H         4.16066881      14.02531534      13.38713436         0.00000000       0.00000000       0.00000000          1
H         4.82213286      11.02387580      10.90471795         0.00000000       0.00000000       0.00000000          1
H         6.43887467      12.77258189      12.36502204         0.00000000       0.00000000       0.00000000          1
H         4.48077623      11.26424453      13.66696384         0.00000000       0.00000000       0.00000000          1
H         4.50203509      13.78495359      10.62489592         0.00000000       0.00000000       0.00000000          1
6
pbc=[F, F, F] list_num_par=6 frozen=false iter=20000 energy=-1.26974174 Lattice="15.00000000 0.00000000 0.00000000 0.00000000 15.00000000 0.00000000 0.00000000 0.00000000 15.00000000" energy_frozen_part=0.00000000 Properties=species:S:1:pos:R:3:velocities:R:3:Z:I:1
H         2.54369456      12.27640006      11.92477848         0.00000000       0.00000000       0.00000000          1
H         4.15922028      14.02432451      13.38734616         0.00000000       0.00000000       0.00000000          1
H         4.82273998      11.02431403      10.90374917         0.00000000       0.00000000       0.00000000          1
H         6.43826528      12.77224118      12.36632151         0.00000000       0.00000000       0.00000000          1
H         4.47918944      11.26309934      13.66585660         0.00000000       0.00000000       0.00000000          1
H         4.50277315      13.78554006      10.62523458         0.00000000       0.00000000       0.00000000          1
6
pbc=[F, F, F] list_num_par=6 frozen=false iter=20000 energy=-1.26974174 Lattice="15.00000000 0.00000000 0.00000000 0.00000000 15.00000000 0.00000000 0.00000000 0.00000000 15.00000000" energy_frozen_part=0.00000000 Properties=species:S:1:pos:R:3:velocities:R:3:Z:I:1
H         2.54392766      12.27661838      11.92682503         0.00000000       0.00000000       0.00000000          1
H         4.16066625      14.02532725      13.38711873         0.00000000       0.00000000       0.00000000          1
H         4.82213581      11.02387000      10.90472262         0.00000000       0.00000000       0.00000000          1
H         6.43886396      12.77258320      12.36501964         0.00000000       0.00000000       0.00000000          1
H         4.48076249      11.26425088      13.66696465         0.00000000       0.00000000       0.00000000          1
H         4.50203357      13.78493821      10.62487684         0.00000000       0.00000000       0.00000000          1
6
pbc=[F, F, F] list_num_par=6 frozen=false iter=20000 energy=-1.26974174 Lattice="15.00000000 0.00000000 0.00000000 0.00000000 15.00000000 0.00000000 0.00000000 0.00000000 15.00000000" energy_frozen_part=0.00000000 Properties=species:S:1:pos:R:3:velocities:R:3:Z:I:1
H         2.54374642      12.27660293      11.92486842         0.00000000       0.00000000       0.00000000          1
H         4.15950899      14.02435668      13.38738067         0.00000000       0.00000000       0.00000000          1
H         4.82263143      11.02425000      10.90379349         0.00000000       0.00000000       0.00000000          1
H         6.43839559      12.77200602      12.36631243         0.00000000       0.00000000       0.00000000          1
H         4.47917478      11.26310176      13.66591154         0.00000000       0.00000000       0.00000000          1
H         4.50297207      13.78549643      10.62526961         0.00000000       0.00000000       0.00000000          1
6
pbc=[F, F, F] list_num_par=6 frozen=false iter=20000 energy=-1.26974174 Lattice="15.00000000 0.00000000 0.00000000 0.00000000 15.00000000 0.00000000 0.00000000 0.00000000 15.00000000" energy_frozen_part=0.00000000 Properties=species:S:1:pos:R:3:velocities:R:3:Z:I:1
H         2.54390904      12.27660699      11.92679725         0.00000000       0.00000000       0.00000000          1
H         4.16058268      14.02535094      13.38712126         0.00000000       0.00000000       0.00000000          1
H         4.82215062      11.02390324      10.90474235         0.00000000       0.00000000       0.00000000          1
H         6.43883025      12.77264510      12.36507027         0.00000000       0.00000000       0.00000000          1
H         4.48072842      11.26428665      13.66697510         0.00000000       0.00000000       0.00000000          1
H         4.50201402      13.78496242      10.62488361         0.00000000       0.00000000       0.00000000          1
6
pbc=[F, F, F] list_num_par=6 frozen=false iter=20000 energy=-1.26974174 Lattice="15.00000000 0.00000000 0.00000000 0.00000000 15.00000000 0.00000000 0.00000000 0.00000000 15.00000000" energy_frozen_part=0.00000000 Properties=species:S:1:pos:R:3:velocities:R:3:Z:I:1
H         2.54391235      12.27658086      11.92692258         0.00000000       0.00000000       0.00000000          1
H         4.16068259      14.02527936      13.38718954         0.00000000       0.00000000       0.00000000          1
H         4.82209404      11.02385508      10.90473692         0.00000000       0.00000000       0.00000000          1
H         6.43886103      12.77255709      12.36500065         0.00000000       0.00000000       0.00000000          1
H         4.48080959      11.26420786      13.66698826         0.00000000       0.00000000       0.00000000          1
H         4.50197759      13.78493093      10.62493441         0.00000000       0.00000000       0.00000000          1
6
pbc=[F, F, F] list_num_par=6 frozen=false iter=20000 energy=-1.26974174 Lattice="15.00000000 0.00000000 0.00000000 0.00000000 15.00000000 0.00000000 0.00000000 0.00000000 15.00000000" energy_frozen_part=0.00000000 Properties=species:S:1:pos:R:3:velocities:R:3:Z:I:1
H         2.54391513      12.27659477      11.92682707         0.00000000       0.00000000       0.00000000          1
H         4.16061735      14.02533094      13.38713349         0.00000000       0.00000000       0.00000000          1
H         4.82214396      11.02387273      10.90475530         0.00000000       0.00000000       0.00000000          1
H         6.43884448      12.77261245      12.36505355         0.00000000       0.00000000       0.00000000          1
H         4.48074652      11.26426492      13.66698134         0.00000000       0.00000000       0.00000000          1
H         4.50201578      13.78493961      10.62489699         0.00000000       0.00000000       0.00000000          1
6
pbc=[F, F, F] list_num_par=6 frozen=false iter=20000 energy=-1.26974174 Lattice="15.00000000 0.00000000 0.00000000 0.00000000 15.00000000 0.00000000 0.00000000 0.00000000 15.00000000" energy_frozen_part=0.00000000 Properties=species:S:1:pos:R:3:velocities:R:3:Z:I:1
H         4.26979448      13.39532715      10.98801699         0.00000000       0.00000000       0.00000000          1
H         4.66677992      14.05567907      13.67327182         0.00000000       0.00000000       0.00000000          1
H         6.27853483      11.46208538      11.16646912         0.00000000       0.00000000       0.00000000          1
H         6.67550988      12.12243061      13.85172874         0.00000000       0.00000000       0.00000000          1
H         4.12883900      11.41151335      12.94987956         0.00000000       0.00000000       0.00000000          1
H         6.81646838      14.10624488      11.88986235         0.00000000       0.00000000       0.00000000          1
6
pbc=[F, F, F] list_num_par=6 frozen=false iter=20000 energy=-1.26974174 Lattice="15.00000000 0.00000000 0.00000000 0.00000000 15.00000000 0.00000000 0.00000000 0.00000000 15.00000000" energy_frozen_part=0.00000000 Properties=species:S:1:pos:R:3:velocities:R:3:Z:I:1
H         2.54409071      12.27667491      11.92702508         0.00000000       0.00000000       0.00000000          1
H         4.16076618      14.02547748      13.38726922         0.00000000       0.00000000       0.00000000          1
H         4.82233209      11.02404081      10.90486962         0.00000000       0.00000000       0.00000000          1
H         6.43901283      12.77283360      12.36512408         0.00000000       0.00000000       0.00000000          1
H         4.48101606      11.26441867      13.66712007         0.00000000       0.00000000       0.00000000          1
H         4.50209415      13.78509583      10.62502561         0.00000000       0.00000000       0.00000000          1
6
pbc=[F, F, F] list_num_par=6 frozen=false iter=20000 energy=-1.26974174 Lattice="15.00000000 0.00000000 0.00000000 0.00000000 15.00000000 0.00000000 0.00000000 0.00000000 15.00000000" energy_frozen_part=0.00000000 Properties=species:S:1:pos:R:3:velocities:R:3:Z:I:1
H         4.26977701      13.39533897      10.98803681         0.00000000       0.00000000       0.00000000          1
H         4.66679875      14.05565746      13.67330252         0.00000000       0.00000000       0.00000000          1
H         6.27850967      11.46208422      11.16644151         0.00000000       0.00000000       0.00000000          1
H         6.67551809      12.12240028      13.85170321         0.00000000       0.00000000       0.00000000          1
H         4.12883018      11.41150792      12.94987565         0.00000000       0.00000000       0.00000000          1
H         6.81646548      14.10624001      11.88986912         0.00000000       0.00000000       0.00000000          1
6
pbc=[F, F, F] list_num_par=6 frozen=false iter=20000 energy=-1.26974174 Lattice="15.00000000 0.00000000 0.00000000 0.00000000 15.00000000 0.00000000 0.00000000 0.00000000 15.00000000" energy_frozen_part=0.00000000 Properties=species:S:1:pos:R:3:velocities:R:3:Z:I:1
H         2.54371724      12.27639410      11.92477966         0.00000000       0.00000000       0.00000000          1
H         4.15922274      14.02432713      13.38735678         0.00000000       0.00000000       0.00000000          1
H         4.82277668      11.02432631      10.90375741         0.00000000       0.00000000       0.00000000          1
H         6.43828670      12.77226173      12.36632767         0.00000000       0.00000000       0.00000000          1
H         4.47921366      11.26310724      13.66586305         0.00000000       0.00000000       0.00000000          1
H         4.50278071      13.78554611      10.62525181         0.00000000       0.00000000       0.00000000          1
6
pbc=[F, F, F] list_num_par=6 frozen=false iter=20000 energy=-1.26974174 Lattice="15.00000000 0.00000000 0.00000000 0.00000000 15.00000000 0.00000000 0.00000000 0.00000000 15.00000000" energy_frozen_part=0.00000000 Properties=species:S:1:pos:R:3:velocities:R:3:Z:I:1
H         2.54384622      12.27688279      11.92688184         0.00000000       0.00000000       0.00000000          1
H         4.16079034      14.02537848      13.38720549         0.00000000       0.00000000       0.00000000          1
H         4.82190547      11.02399154      10.90462653         0.00000000       0.00000000       0.00000000          1
H         6.43884895      12.77248949      12.36495210         0.00000000       0.00000000       0.00000000          1
H         4.48065954      11.26427152      13.66689371         0.00000000       0.00000000       0.00000000          1
H         4.50204249      13.78510330      10.62494161         0.00000000       0.00000000       0.00000000          1
6
pbc=[F, F, F] list_num_par=6 frozen=false iter=20000 energy=-1.26974174 Lattice="15.00000000 0.00000000 0.00000000 0.00000000 15.00000000 0.00000000 0.00000000 0.00000000 15.00000000" energy_frozen_part=0.00000000 Properties=species:S:1:pos:R:3:velocities:R:3:Z:I:1
H         2.54370746      12.27639425      11.92476597         0.00000000       0.00000000       0.00000000          1
H         4.15925388      14.02431041      13.38733318         0.00000000       0.00000000       0.00000000          1
H         4.82274255      11.02430033      10.90372603         0.00000000       0.00000000       0.00000000          1
H         6.43829089      12.77220746      12.36629421         0.00000000       0.00000000       0.00000000          1
H         4.47920875      11.26308647      13.66583079         0.00000000       0.00000000       0.00000000          1
H         4.50278858      13.78552632      10.62522622         0.00000000       0.00000000       0.00000000          1
6
pbc=[F, F, F] list_num_par=6 frozen=false iter=20000 energy=-1.26974174 Lattice="15.00000000 0.00000000 0.00000000 0.00000000 15.00000000 0.00000000 0.00000000 0.00000000 15.00000000" energy_frozen_part=0.00000000 Properties=species:S:1:pos:R:3:velocities:R:3:Z:I:1
H         2.54407621      12.27667060      11.92702152         0.00000000       0.00000000       0.00000000          1
H         4.16074880      14.02549352      13.38725293         0.00000000       0.00000000       0.00000000          1