6
pbc=[F, F, F] list_num_par=6 frozen=false iter=9 energy=8.61697060 Lattice="15.00000000 0.00000000 0.00000000 0.00000000 15.00000000 0.00000000 0.00000000 0.00000000 15.00000000" energy_frozen_part=0.00000000 Properties=species:S:1:pos:R:3:velocities:R:3:Z:I:1
H        10.07143528      12.57958661       6.33706288         0.00000000       0.00000000       0.00000000          1
H         5.33243374      13.84138447       6.90387403         0.00000000       0.00000000       0.00000000          1
H         9.30531886       3.70352626      14.86383796         0.00000000       0.00000000       0.00000000          1
H         8.14169162      13.77732128       9.74690500         0.00000000       0.00000000       0.00000000          1
H         9.48483646      11.48759343       4.89665249         0.00000000       0.00000000       0.00000000          1
H         0.84194239      13.12026707      11.96017005         0.00000000       0.00000000       0.00000000          1
6
pbc=[F, F, F] list_num_par=6 frozen=false iter=19 energy=0.26526277 Lattice="15.00000000 0.00000000 0.00000000 0.00000000 15.00000000 0.00000000 0.00000000 0.00000000 15.00000000" energy_frozen_part=0.00000000 Properties=species:S:1:pos:R:3:velocities:R:3:Z:I:1
H        14.42281740      12.29778185       7.29986824         0.00000000       0.00000000       0.00000000          1
H         3.29840143      12.61723420       6.31155669         0.00000000       0.00000000       0.00000000          1
H         5.89430212      12.75269954       3.80171165         0.00000000       0.00000000       0.00000000          1
H         2.69309891       8.94863227       1.24869916         0.00000000       0.00000000       0.00000000          1
H         1.91854489      12.16695156       3.69364457         0.00000000       0.00000000       0.00000000          1
H         2.23152067      13.81999128       7.94790180         0.00000000       0.00000000       0.00000000          1
6
pbc=[F, F, F] list_num_par=6 frozen=false iter=29 energy=-0.00258287 Lattice="15.00000000 0.00000000 0.00000000 0.00000000 15.00000000 0.00000000 0.00000000 0.00000000 15.00000000" energy_frozen_part=0.00000000 Properties=species:S:1:pos:R:3:velocities:R:3:Z:I:1
H         1.09468396       9.73857580       2.72632039         0.00000000       0.00000000       0.00000000          1
H         8.77938875       5.39850925       0.71408571         0.00000000       0.00000000       0.00000000          1
H         6.78754653      10.74184940       5.83312853         0.00000000       0.00000000       0.00000000          1
H        13.70292683      10.37156026       2.71525989         0.00000000       0.00000000       0.00000000          1
H         3.13693436      13.86582910      14.11282520         0.00000000       0.00000000       0.00000000          1
H         2.27996816       0.07921343      12.97777478         0.00000000       0.00000000       0.00000000          1
6
pbc=[F, F, F] list_num_par=6 frozen=false iter=39 energy=-0.00500252 Lattice="15.00000000 0.00000000 0.00000000 0.00000000 15.00000000 0.00000000 0.00000000 0.00000000 15.00000000" energy_frozen_part=0.00000000 Properties=species:S:1:pos:R:3:velocities:R:3:Z:I:1
H         9.03836200       7.64284960       0.78232441         0.00000000       0.00000000       0.00000000          1
H         0.31684713       7.58903567       4.25971551         0.00000000       0.00000000       0.00000000          1
H        11.75497975       2.78930146       3.81502029         0.00000000       0.00000000       0.00000000          1
H         6.36696557       0.02224444       9.13620849         0.00000000       0.00000000       0.00000000          1
H         0.64796173      10.32350980      11.54902500         0.00000000       0.00000000       0.00000000          1
H         4.59263716      11.78159037       2.10853059         0.00000000       0.00000000       0.00000000          1
6
pbc=[F, F, F] list_num_par=6 frozen=false iter=49 energy=-0.00689807 Lattice="15.00000000 0.00000000 0.00000000 0.00000000 15.00000000 0.00000000 0.00000000 0.00000000 15.00000000" energy_frozen_part=0.00000000 Properties=species:S:1:pos:R:3:velocities:R:3:Z:I:1
H         4.20872892       6.22773745      13.34622824         0.00000000       0.00000000       0.00000000          1
H         2.44193276       6.90804522       0.21704511         0.00000000       0.00000000       0.00000000          1
H        14.38348648      12.20801821       3.90015879         0.00000000       0.00000000       0.00000000          1
H         9.32901124      12.28177635       0.29173595         0.00000000       0.00000000       0.00000000          1
H         3.98597680      10.27761969       8.34235702         0.00000000       0.00000000       0.00000000          1
H         4.50811494      14.52394529       1.90243437         0.00000000       0.00000000       0.00000000          1
6
pbc=[F, F, F] list_num_par=6 frozen=false iter=59 energy=-0.00813272 Lattice="15.00000000 0.00000000 0.00000000 0.00000000 15.00000000 0.00000000 0.00000000 0.00000000 15.00000000" energy_frozen_part=0.00000000 Properties=species:S:1:pos:R:3:velocities:R:3:Z:I:1
H         4.74883360      14.82806447       9.24574448         0.00000000       0.00000000       0.00000000          1
H        14.46702399       0.43228736       1.00517189         0.00000000       0.00000000       0.00000000          1
H         5.14927473       4.90944761       6.57216565         0.00000000       0.00000000       0.00000000          1
H         0.72491345      13.81643621      13.64501403         0.00000000       0.00000000       0.00000000          1
H        13.47954814       3.68886087       4.65897038         0.00000000       0.00000000       0.00000000          1
H        13.69490808      11.50268213      14.49919336         0.00000000       0.00000000       0.00000000          1
6
pbc=[F, F, F] list_num_par=6 frozen=false iter=69 energy=-0.01036241 Lattice="15.00000000 0.00000000 0.00000000 0.00000000 15.00000000 0.00000000 0.00000000 0.00000000 15.00000000" energy_frozen_part=0.00000000 Properties=species:S:1:pos:R:3:velocities:R:3:Z:I:1
H         8.50113971       0.17590945       2.83855672         0.00000000       0.00000000       0.00000000          1
H        14.88941923      11.05791810       8.27247173         0.00000000       0.00000000       0.00000000          1
H         5.95900040       9.64623173      10.74589447         0.00000000       0.00000000       0.00000000          1
H        14.42280675      11.51450185       5.86476770         0.00000000       0.00000000       0.00000000          1
H         2.02578060       9.14363339       9.05629714         0.00000000       0.00000000       0.00000000          1
H         8.91119337       4.34515473      13.37452305         0.00000000       0.00000000       0.00000000          1
6
pbc=[F, F, F] list_num_par=6 frozen=false iter=79 energy=-0.01313739 Lattice="15.00000000 0.00000000 0.00000000 0.00000000 15.00000000 0.00000000 0.00000000 0.00000000 15.00000000" energy_frozen_part=0.00000000 Properties=species:S:1:pos:R:3:velocities:R:3:Z:I:1
H         2.50125124       9.76861368       6.08769031         0.00000000       0.00000000       0.00000000          1
H         8.53790899       5.07123262      11.39473700         0.00000000       0.00000000       0.00000000          1
H         0.42867192       4.34536745      11.17427378         0.00000000       0.00000000       0.00000000          1
H         1.94278012       6.89117823       1.82317643         0.00000000       0.00000000       0.00000000          1
H        11.83566881      14.77977236       4.12351366         0.00000000       0.00000000       0.00000000          1
H         6.97630835      13.03476660       4.27012712         0.00000000       0.00000000       0.00000000          1
6
pbc=[F, F, F] list_num_par=6 frozen=false iter=89 energy=-0.01625598 Lattice="15.00000000 0.00000000 0.00000000 0.00000000 15.00000000 0.00000000 0.00000000 0.00000000 15.00000000" energy_frozen_part=0.00000000 Properties=species:S:1:pos:R:3:velocities:R:3:Z:I:1
H         5.27684594       7.85768800       3.02037500         0.00000000       0.00000000       0.00000000          1
H         7.05321387       3.96573130       2.80074201         0.00000000       0.00000000       0.00000000          1
H         4.17433212      14.39462041       5.15250971         0.00000000       0.00000000       0.00000000          1
H        14.58404469      10.38657306       1.30371918         0.00000000       0.00000000       0.00000000          1
H         5.44230218      14.17408852      12.78206939         0.00000000       0.00000000       0.00000000          1
H         4.00939387       0.20797146      10.79700465         0.00000000       0.00000000       0.00000000          1
6
pbc=[F, F, F] list_num_par=6 frozen=false iter=99 energy=-0.01963297 Lattice="15.00000000 0.00000000 0.00000000 0.00000000 15.00000000 0.00000000 0.00000000 0.00000000 15.00000000" energy_frozen_part=0.00000000 Properties=species:S:1:pos:R:3:velocities:R:3:Z:I:1
H         8.37172358       2.88042986      11.94927519         0.00000000       0.00000000       0.00000000          1
H         0.66302502       2.82465848      11.12164515         0.00000000       0.00000000       0.00000000          1
H         3.77141830       1.07708177      14.51649478         0.00000000       0.00000000       0.00000000          1
H        11.80914594       3.88800432       8.21330686         0.00000000       0.00000000       0.00000000          1
H         2.82300623       2.05524424       6.06963161         0.00000000       0.00000000       0.00000000          1
H        10.07002621       9.11109987      14.61045428         0.00000000       0.00000000       0.00000000          1
6
pbc=[F, F, F] list_num_par=6 frozen=false iter=109 energy=-0.02193207 Lattice="15.00000000 0.00000000 0.00000000 0.00000000 15.00000000 0.00000000 0.00000000 0.00000000 15.00000000" energy_frozen_part=0.00000000 Properties=species:S:1:pos:R:3:velocities:R:3:Z:I:1
H         2.16693181      12.06968421       6.11595055         0.00000000       0.00000000       0.00000000          1
H        12.60805832       9.37561208       2.13261259         0.00000000       0.00000000       0.00000000          1
H         5.67067377      11.50587332       8.62025702         0.00000000       0.00000000       0.00000000          1
H        12.28298052      14.69822269      14.58594058         0.00000000       0.00000000       0.00000000          1
H        14.54239311       9.41810516      10.76661852         0.00000000       0.00000000       0.00000000          1
H         5.79610284       7.07811352      10.79158455         0.00000000       0.00000000       0.00000000          1
6
pbc=[F, F, F] list_num_par=6 frozen=false iter=119 energy=-0.02666672 Lattice="15.00000000 0.00000000 0.00000000 0.00000000 15.00000000 0.00000000 0.00000000 0.00000000 15.00000000" energy_frozen_part=0.00000000 Properties=species:S:1:pos:R:3:velocities:R:3:Z:I:1
H        12.39605483       9.04343711      12.36061522         0.00000000       0.00000000       0.00000000          1
H         9.03789862       2.68910372      13.16431901         0.00000000       0.00000000       0.00000000          1
H         7.82696981       8.56014632       4.28208068         0.00000000       0.00000000       0.00000000          1
H        10.90184373      10.37013671       2.44994361         0.00000000       0.00000000       0.00000000          1
H        11.05040963       3.94527780       3.87748606         0.00000000       0.00000000       0.00000000          1
H         0.22067720      14.60305806       4.17957231         0.00000000       0.00000000       0.00000000          1
6
pbc=[F, F, F] list_num_par=6 frozen=false iter=129 energy=-0.03132889 Lattice="15.00000000 0.00000000 0.00000000 0.00000000 15.00000000 0.00000000 0.00000000 0.00000000 15.00000000" energy_frozen_part=0.00000000 Properties=species:S:1:pos:R:3:velocities:R:3:Z:I:1
H         2.83495945       2.19314844       8.46417393         0.00000000       0.00000000       0.00000000          1
H         0.43703360      13.22888776       1.59171774         0.00000000       0.00000000       0.00000000          1
H        12.62942898       2.31928120       7.71133919         0.00000000       0.00000000       0.00000000          1
H         1.90730585      14.62675921       4.78856289         0.00000000       0.00000000       0.00000000          1
H        14.30854898      13.92361828      13.52363458         0.00000000       0.00000000       0.00000000          1
H         7.50837276       6.56480460       4.64044219         0.00000000       0.00000000       0.00000000          1
6
pbc=[F, F, F] list_num_par=6 frozen=false iter=139 energy=-0.03469899 Lattice="15.00000000 0.00000000 0.00000000 0.00000000 15.00000000 0.00000000 0.00000000 0.00000000 15.00000000" energy_frozen_part=0.00000000 Properties=species:S:1:pos:R:3:velocities:R:3:Z:I:1
H         2.75254564      14.63670509       2.31031190         0.00000000       0.00000000       0.00000000          1
H         9.66060539       4.90707391      14.83151173         0.00000000       0.00000000       0.00000000          1
H         8.20235062      14.38786939       6.23797425         0.00000000       0.00000000       0.00000000          1
H         0.00215784      12.84353261       0.51185715         0.00000000       0.00000000       0.00000000          1
H         5.62817948       8.00724853      10.53168500         0.00000000       0.00000000       0.00000000          1
H        13.89699595      13.39742956      11.97375706         0.00000000       0.00000000       0.00000000          1
6
pbc=[F, F, F] list_num_par=6 frozen=false iter=149 energy=-0.03883364 Lattice="15.00000000 0.00000000 0.00000000 0.00000000 15.00000000 0.00000000 0.00000000 0.00000000 15.00000000" energy_frozen_part=0.00000000 Properties=species:S:1:pos:R:3:velocities:R:3:Z:I:1
H         3.04529643       1.59098356       5.04014434         0.00000000       0.00000000       0.00000000          1
H         8.53188159       7.98544300       4.43835740         0.00000000       0.00000000       0.00000000          1
H         8.74012016      10.92033319       9.94161197         0.00000000       0.00000000       0.00000000          1
H         5.05827855       0.04171526       7.75219784         0.00000000       0.00000000       0.00000000          1
H        14.47521066      11.60447102       9.31069466         0.00000000       0.00000000       0.00000000          1
H        11.38601241      13.06446995       0.79966509         0.00000000       0.00000000       0.00000000          1
6
pbc=[F, F, F] list_num_par=6 frozen=false iter=159 energy=-0.04114604 Lattice="15.00000000 0.00000000 0.00000000 0.00000000 15.00000000 0.00000000 0.00000000 0.00000000 15.00000000" energy_frozen_part=0.00000000 Properties=species:S:1:pos:R:3:velocities:R:3:Z:I:1
H         3.91933888      12.92756136       7.27533976         0.00000000       0.00000000       0.00000000          1
H        10.10811240       5.91002547       8.48853087         0.00000000       0.00000000       0.00000000          1
H         9.25894830      12.59202426      11.05313452         0.00000000       0.00000000       0.00000000          1
H         1.60183850       9.63808845       9.55982440         0.00000000       0.00000000       0.00000000          1
H         5.07592885       3.45032275       1.73201125         0.00000000       0.00000000       0.00000000          1
H         8.39703745      12.15313699      14.74261785         0.00000000       0.00000000       0.00000000          1
6
pbc=[F, F, F] list_num_par=6 frozen=false iter=169 energy=-0.04681876 Lattice="15.00000000 0.00000000 0.00000000 0.00000000 15.00000000 0.00000000 0.00000000 0.00000000 15.00000000" energy_frozen_part=0.00000000 Properties=species:S:1:pos:R:3:velocities:R:3:Z:I:1
H         4.73640805       3.42556571       5.61944435         0.00000000       0.00000000       0.00000000          1
H         3.65381809       4.31316004      11.32131704         0.00000000       0.00000000       0.00000000          1
H         2.84225053      12.94947274      13.61456193         0.00000000       0.00000000       0.00000000          1
H         4.65868813       7.35033801      14.68135780         0.00000000       0.00000000       0.00000000          1
H         5.77096225       7.10198932       4.03361617         0.00000000       0.00000000       0.00000000          1
H         0.48764044       2.26567438       5.93126962         0.00000000       0.00000000       0.00000000          1
6
pbc=[F, F, F] list_num_par=6 frozen=false iter=179 energy=-0.05435437 Lattice="15.00000000 0.00000000 0.00000000 0.00000000 15.00000000 0.00000000 0.00000000 0.00000000 15.00000000" energy_frozen_part=0.00000000 Properties=species:S:1:pos:R:3:velocities:R:3:Z:I:1
H         3.32016552       0.32676567      11.99393728         0.00000000       0.00000000       0.00000000          1
H         0.78679597      13.78956419      13.60237224         0.00000000       0.00000000       0.00000000          1
H         4.26360992       1.22061239       9.82487591         0.00000000       0.00000000       0.00000000          1
H         8.15168642       5.57246271       1.67718399         0.00000000       0.00000000       0.00000000          1
H        12.61989253      11.05527353       6.90615817         0.00000000       0.00000000       0.00000000          1
H         9.58956920      11.75734129       4.69337429         0.00000000       0.00000000       0.00000000          1
6
pbc=[F, F, F] list_num_par=6 frozen=false iter=189 energy=-0.05994450 Lattice="15.00000000 0.00000000 0.00000000 0.00000000 15.00000000 0.00000000 0.00000000 0.00000000 15.00000000" energy_frozen_part=0.00000000 Properties=species:S:1:pos:R:3:velocities:R:3:Z:I:1
H         7.07475107       0.85180130      11.47121463         0.00000000       0.00000000       0.00000000          1
H         4.81132114       5.19113233       3.94950005         0.00000000       0.00000000       0.00000000          1
H         9.98810921      10.00145307      11.25643322         0.00000000       0.00000000       0.00000000          1
H        13.35867482       8.90557143       3.99984421         0.00000000       0.00000000       0.00000000          1
H         2.25248045       7.49538394      13.33557180         0.00000000       0.00000000       0.00000000          1
H         8.10508688       3.92899866      12.30379703         0.00000000       0.00000000       0.00000000          1
6
pbc=[F, F, F] list_num_par=6 frozen=false iter=199 energy=-0.07251470 Lattice="15.00000000 0.00000000 0.00000000 0.00000000 15.00000000 0.00000000 0.00000000 0.00000000 15.00000000" energy_frozen_part=0.00000000 Properties=species:S:1:pos:R:3:velocities:R:3:Z:I:1
H        12.72248477       2.45879097       7.37630200         0.00000000       0.00000000       0.00000000          1
H         7.56859114      10.47757923       3.96025915         0.00000000       0.00000000       0.00000000          1
H         9.45705589       2.67646060       2.12542573         0.00000000       0.00000000       0.00000000          1
H        11.13262490      10.96543549       1.58868590         0.00000000       0.00000000       0.00000000          1
H         8.97103153       9.14766486       7.40667046         0.00000000       0.00000000       0.00000000          1
H        11.69348386       6.28950017       9.07444608         0.00000000       0.00000000       0.00000000          1
6
pbc=[F, F, F] list_num_par=6 frozen=false iter=209 energy=-0.07774002 Lattice="15.00000000 0.00000000 0.00000000 0.00000000 15.00000000 0.00000000 0.00000000 0.00000000 15.00000000" energy_frozen_part=0.00000000 Properties=species:S:1:pos:R:3:velocities:R:3:Z:I:1
H         7.90824260       2.70306399      11.87448285         0.00000000       0.00000000       0.00000000          1
H         8.57109118      10.02574049       6.07901845         0.00000000       0.00000000       0.00000000          1
H         3.34403294       2.85518229      10.08704392         0.00000000       0.00000000       0.00000000          1
H         5.68758089      10.55820597       9.12290350         0.00000000       0.00000000       0.00000000          1
H         9.17228195      14.61417189       1.01267813         0.00000000       0.00000000       0.00000000          1
H         9.99404439       8.26958420       8.76421154         0.00000000       0.00000000       0.00000000          1
6
pbc=[F, F, F] list_num_par=6 frozen=false iter=219 energy=-0.08301832 Lattice="15.00000000 0.00000000 0.00000000 0.00000000 15.00000000 0.00000000 0.00000000 0.00000000 15.00000000" energy_frozen_part=0.00000000 Properties=species:S:1:pos:R:3:velocities:R:3:Z:I:1
H        13.83945475       8.90112446       3.49925124         0.00000000       0.00000000       0.00000000          1
H         7.84254184       6.05571252       9.13242829         0.00000000       0.00000000       0.00000000          1
H         3.23438642       4.52189280      13.92814903         0.00000000       0.00000000       0.00000000          1
H         6.59990898       6.59730323       2.94629551         0.00000000       0.00000000       0.00000000          1
H         5.94988646       5.82564951       0.50898246         0.00000000       0.00000000       0.00000000          1
H         1.16042078      12.98046643       2.16957909         0.00000000       0.00000000       0.00000000          1
6
pbc=[F, F, F] list_num_par=6 frozen=false iter=229 energy=-0.08732389 Lattice="15.00000000 0.00000000 0.00000000 0.00000000 15.00000000 0.00000000 0.00000000 0.00000000 15.00000000" energy_frozen_part=0.00000000 Properties=species:S:1:pos:R:3:velocities:R:3:Z:I:1
H         0.26371888       0.96447963      11.51922514         0.00000000       0.00000000       0.00000000          1
H        12.36775051      13.53053575      10.82719616         0.00000000       0.00000000       0.00000000          1
H        14.00852709       1.10069418      11.87048155         0.00000000       0.00000000       0.00000000          1
H         8.29021029       1.53271417      13.89027709         0.00000000       0.00000000       0.00000000          1
H        10.98608080      14.85776220       9.00376995         0.00000000       0.00000000       0.00000000          1
H        14.22266466       2.28453259       6.54435649         0.00000000       0.00000000       0.00000000          1
6
pbc=[F, F, F] list_num_par=6 frozen=false iter=239 energy=-0.09048556 Lattice="15.00000000 0.00000000 0.00000000 0.00000000 15.00000000 0.00000000 0.00000000 0.00000000 15.00000000" energy_frozen_part=0.00000000 Properties=species:S:1:pos:R:3:velocities:R:3:Z:I:1
H        11.56234700       1.60460959       2.41274189         0.00000000       0.00000000       0.00000000          1
H         9.22802822       4.05559248       1.70590835         0.00000000       0.00000000       0.00000000          1
H        10.69980716       3.81923587      12.65313005         0.00000000       0.00000000       0.00000000          1
H         5.93346547       1.73870152       1.63321892         0.00000000       0.00000000       0.00000000          1
H         1.36591704       9.97695965       8.80677740         0.00000000       0.00000000       0.00000000          1
H        13.07341444       6.19401356      10.15646602         0.00000000       0.00000000       0.00000000          1
6
pbc=[F, F, F] list_num_par=6 frozen=false iter=249 energy=-0.09407933 Lattice="15.00000000 0.00000000 0.00000000 0.00000000 15.00000000 0.00000000 0.00000000 0.00000000 15.00000000" energy_frozen_part=0.00000000 Properties=species:S:1:pos:R:3:velocities:R:3:Z:I:1
H        13.03824253      14.24270599       2.19487235         0.00000000       0.00000000       0.00000000          1
H         7.62313281       4.04905087      11.47277978         0.00000000       0.00000000       0.00000000          1
H         7.23189744       7.01529878      12.53718234         0.00000000       0.00000000       0.00000000          1
H         7.24545065       5.42182776       1.07890340         0.00000000       0.00000000       0.00000000          1
H         3.23676523       5.09275150       1.29705426         0.00000000       0.00000000       0.00000000          1
H         3.93115622      14.23730674       0.75243898         0.00000000       0.00000000       0.00000000          1
6
pbc=[F, F, F] list_num_par=6 frozen=false iter=259 energy=-0.09793835 Lattice="15.00000000 0.00000000 0.00000000 0.00000000 15.00000000 0.00000000 0.00000000 0.00000000 15.00000000" energy_frozen_part=0.00000000 Properties=species:S:1:pos:R:3:velocities:R:3:Z:I:1
H        10.40266598       5.28190569       8.18946113         0.00000000       0.00000000       0.00000000          1
H        10.53863943       2.55921693      14.22558796         0.00000000       0.00000000       0.00000000          1
H         6.33781473      12.61722793       3.50971349         0.00000000       0.00000000       0.00000000          1
H        11.77624656       4.11936829       5.89414953         0.00000000       0.00000000       0.00000000          1
H        14.82361629      13.96028513       8.32911997         0.00000000       0.00000000       0.00000000          1
H         1.60726676       9.55426504       0.02664316         0.00000000       0.00000000       0.00000000          1
6
pbc=[F, F, F] list_num_par=6 frozen=false iter=269 energy=-0.10102524 Lattice="15.00000000 0.00000000 0.00000000 0.00000000 15.00000000 0.00000000 0.00000000 0.00000000 15.00000000" energy_frozen_part=0.00000000 Properties=species:S:1:pos:R:3:velocities:R:3:Z:I:1
H         9.47052985       0.32006319       4.96969343         0.00000000       0.00000000       0.00000000          1
H         3.93271297      12.26422654       2.05013738         0.00000000       0.00000000       0.00000000          1
H         6.14104833       1.98170813       5.29370855         0.00000000       0.00000000       0.00000000          1
H         1.44014756       7.38706591      10.88293038         0.00000000       0.00000000       0.00000000          1
H        11.77268538       1.91692406       7.91283455         0.00000000       0.00000000       0.00000000          1
H         0.84164342       4.04979979      11.74005698         0.00000000       0.00000000       0.00000000          1
6
pbc=[F, F, F] list_num_par=6 frozen=false iter=279 energy=-0.10167184 Lattice="15.00000000 0.00000000 0.00000000 0.00000000 15.00000000 0.00000000 0.00000000 0.00000000 15.00000000" energy_frozen_part=0.00000000 Properties=species:S:1:pos:R:3:velocities:R:3:Z:I:1
H         1.42884888       5.97591446      14.71452787         0.00000000       0.00000000       0.00000000          1
H         1.93905216       8.44173735       0.35919424         0.00000000       0.00000000       0.00000000          1
H         4.46741382       7.15016437       0.32790587         0.00000000       0.00000000       0.00000000          1
H         9.63929304       7.25626113      10.66286640         0.00000000       0.00000000       0.00000000          1
H        10.38899622       9.03114164       3.54168718         0.00000000       0.00000000       0.00000000          1
H         5.00520086      12.61564232      10.84412532         0.00000000       0.00000000       0.00000000          1
6
pbc=[F, F, F] list_num_par=6 frozen=false iter=289 energy=-0.10344727 Lattice="15.00000000 0.00000000 0.00000000 0.00000000 15.00000000 0.00000000 0.00000000 0.00000000 15.00000000" energy_frozen_part=0.00000000 Properties=species:S:1:pos:R:3:velocities:R:3:Z:I:1
H        11.48175858       6.14879552       0.00873929         0.00000000       0.00000000       0.00000000          1
H         5.28865230       2.27533558       1.42742728         0.00000000       0.00000000       0.00000000          1
H         7.92567948       3.56120427       9.05901140         0.00000000       0.00000000       0.00000000          1
H         4.61132729       0.58026438       3.95901119         0.00000000       0.00000000       0.00000000          1
H         5.05797207       9.87402540       0.80544488         0.00000000       0.00000000       0.00000000          1
H        10.51041746       3.38431113       2.96273115         0.00000000       0.00000000       0.00000000          1
6
pbc=[F, F, F] list_num_par=6 frozen=false iter=299 energy=-0.10510719 Lattice="15.00000000 0.00000000 0.00000000 0.00000000 15.00000000 0.00000000 0.00000000 0.00000000 15.00000000" energy_frozen_part=0.00000000 Properties=species:S:1:pos:R:3:velocities:R:3:Z:I:1
H        10.09377216       5.49155072       7.71582187         0.00000000       0.00000000       0.00000000          1
H         9.53236253       0.65474432      14.08727251         0.00000000       0.00000000       0.00000000          1
H         8.15658896      13.35636495       1.96508618         0.00000000       0.00000000       0.00000000          1
H        10.32696685       5.52788241       4.90413025         0.00000000       0.00000000       0.00000000          1
H        12.13485720       7.49664238       0.18725713         0.00000000       0.00000000       0.00000000          1
H         1.47375276       9.89207349       0.51392758         0.00000000       0.00000000       0.00000000          1
6
pbc=[F, F, F] list_num_par=6 frozen=false iter=309 energy=-0.10828612 Lattice="15.00000000 0.00000000 0.00000000 0.00000000 15.00000000 0.00000000 0.00000000 0.00000000 15.00000000" energy_frozen_part=0.00000000 Properties=species:S:1:pos:R:3:velocities:R:3:Z:I:1
H         8.54974757      10.73626416       3.53932552         0.00000000       0.00000000       0.00000000          1
H         0.17752547       6.21423267       5.99065840         0.00000000       0.00000000       0.00000000          1