6
pbc=[F, F, F] list_num_par=6 frozen=false iter=9 energy=11.96819916 Lattice="15.00000000 0.00000000 0.00000000 0.00000000 15.00000000 0.00000000 0.00000000 0.00000000 15.00000000" energy_frozen_part=0.00000000 Properties=species:S:1:pos:R:3:velocities:R:3:Z:I:1
H         2.28825906       7.70191829       7.32150482         0.00000000       0.00000000       0.00000000          1
H         8.95568924      10.72377808       4.96492344         0.00000000       0.00000000       0.00000000          1
H         7.95904866       9.15197124       7.82179790         0.00000000       0.00000000       0.00000000          1
H         9.92828734       1.11419639       5.42809750         0.00000000       0.00000000       0.00000000          1
H         2.99180184       0.74338506       1.56881453         0.00000000       0.00000000       0.00000000          1
H         1.72300488       9.29736947       6.56425584         0.00000000       0.00000000       0.00000000          1
6
pbc=[F, F, F] list_num_par=6 frozen=false iter=19 energy=0.30709921 Lattice="15.00000000 0.00000000 0.00000000 0.00000000 15.00000000 0.00000000 0.00000000 0.00000000 15.00000000" energy_frozen_part=0.00000000 Properties=species:S:1:pos:R:3:velocities:R:3:Z:I:1
H        14.90853047       1.42538836       7.30164938         0.00000000       0.00000000       0.00000000          1
H        13.87555644       7.41744032       0.78647093         0.00000000       0.00000000       0.00000000          1
H        12.36544185      13.22863232       8.64666683         0.00000000       0.00000000       0.00000000          1
H         3.64825409       0.82576797      13.09838261         0.00000000       0.00000000       0.00000000          1
H        13.33391713       9.06568050       2.34614299         0.00000000       0.00000000       0.00000000          1
H         8.53423433       7.29283833       4.91683545         0.00000000       0.00000000       0.00000000          1
6
pbc=[F, F, F] list_num_par=6 frozen=false iter=29 energy=-0.00292448 Lattice="15.00000000 0.00000000 0.00000000 0.00000000 15.00000000 0.00000000 0.00000000 0.00000000 15.00000000" energy_frozen_part=0.00000000 Properties=species:S:1:pos:R:3:velocities:R:3:Z:I:1
H         9.40883426      10.29792331      13.42832140         0.00000000       0.00000000       0.00000000          1
H        13.26629614       1.64022276       4.42988581         0.00000000       0.00000000       0.00000000          1
H         8.61334935       7.03862534       5.11525218         0.00000000       0.00000000       0.00000000          1
H         9.97462206       1.57908575      10.23740510         0.00000000       0.00000000       0.00000000          1
H         0.20824506      12.75625415       3.89260620         0.00000000       0.00000000       0.00000000          1
H         1.14935420       5.19271101       4.91677490         0.00000000       0.00000000       0.00000000          1
6
pbc=[F, F, F] list_num_par=6 frozen=false iter=39 energy=-0.00549374 Lattice="15.00000000 0.00000000 0.00000000 0.00000000 15.00000000 0.00000000 0.00000000 0.00000000 15.00000000" energy_frozen_part=0.00000000 Properties=species:S:1:pos:R:3:velocities:R:3:Z:I:1
H         0.18310933       3.11615829       1.13850097         0.00000000       0.00000000       0.00000000          1
H        14.63295249       7.03756371       6.35426061         0.00000000       0.00000000       0.00000000          1
H         3.70522171       5.19354246       4.34455075         0.00000000       0.00000000       0.00000000          1
H        12.40251368      14.77868791      11.31221498         0.00000000       0.00000000       0.00000000          1
H         8.35955670       1.16113522       8.28300797         0.00000000       0.00000000       0.00000000          1
H         1.21067258      14.88917015       3.09616304         0.00000000       0.00000000       0.00000000          1
6
pbc=[F, F, F] list_num_par=6 frozen=false iter=49 energy=-0.01033274 Lattice="15.00000000 0.00000000 0.00000000 0.00000000 15.00000000 0.00000000 0.00000000 0.00000000 15.00000000" energy_frozen_part=0.00000000 Properties=species:S:1:pos:R:3:velocities:R:3:Z:I:1
H         2.03221655       6.30197953       2.19526456         0.00000000       0.00000000       0.00000000          1
H         5.77466191       4.67923344      12.55237298         0.00000000       0.00000000       0.00000000          1
H         1.36813330       0.61233341       8.81809237         0.00000000       0.00000000       0.00000000          1
H         6.84701536       8.91163762       2.97395786         0.00000000       0.00000000       0.00000000          1
H        13.84374816       4.00183122       0.05434944         0.00000000       0.00000000       0.00000000          1
H         9.55641407       1.71290006       1.40748180         0.00000000       0.00000000       0.00000000          1
6
pbc=[F, F, F] list_num_par=6 frozen=false iter=59 energy=-0.01271048 Lattice="15.00000000 0.00000000 0.00000000 0.00000000 15.00000000 0.00000000 0.00000000 0.00000000 15.00000000" energy_frozen_part=0.00000000 Properties=species:S:1:pos:R:3:velocities:R:3:Z:I:1
H         5.27478108       9.19166060      14.11193652         0.00000000       0.00000000       0.00000000          1
H        12.41073154      11.90576284      14.90080337         0.00000000       0.00000000       0.00000000          1
H        10.90817284       3.64751306       0.43580140         0.00000000       0.00000000       0.00000000          1
H         5.38502361       1.25672784       4.28183341         0.00000000       0.00000000       0.00000000          1
H         8.76696428      12.78191481       8.34355712         0.00000000       0.00000000       0.00000000          1
H        13.22372339       7.90462561      12.85248421         0.00000000       0.00000000       0.00000000          1
6
pbc=[F, F, F] list_num_par=6 frozen=false iter=69 energy=-0.01502488 Lattice="15.00000000 0.00000000 0.00000000 0.00000000 15.00000000 0.00000000 0.00000000 0.00000000 15.00000000" energy_frozen_part=0.00000000 Properties=species:S:1:pos:R:3:velocities:R:3:Z:I:1
H        10.45287470       5.91640175       9.14128971         0.00000000       0.00000000       0.00000000          1
H        10.58658736       9.84623422       1.56798302         0.00000000       0.00000000       0.00000000          1
H         2.28678618       0.28582631      11.21200558         0.00000000       0.00000000       0.00000000          1
H        10.98551683      14.27675366       3.37659310         0.00000000       0.00000000       0.00000000          1
H         2.50226971       0.44014771       4.83257252         0.00000000       0.00000000       0.00000000          1
H         6.16174511       7.62652779       3.02022059         0.00000000       0.00000000       0.00000000          1
6
pbc=[F, F, F] list_num_par=6 frozen=false iter=79 energy=-0.01999293 Lattice="15.00000000 0.00000000 0.00000000 0.00000000 15.00000000 0.00000000 0.00000000 0.00000000 15.00000000" energy_frozen_part=0.00000000 Properties=species:S:1:pos:R:3:velocities:R:3:Z:I:1
H        14.63486114       9.98985134      13.60926222         0.00000000       0.00000000       0.00000000          1
H         2.90493378       9.00750116       9.38594556         0.00000000       0.00000000       0.00000000          1
H         2.47534002       2.54465878       9.66900646         0.00000000       0.00000000       0.00000000          1
H         4.61333607      11.16148797       4.48066182         0.00000000       0.00000000       0.00000000          1
H         5.06571070       5.67677713      12.29771503         0.00000000       0.00000000       0.00000000          1
H         9.59121145      14.29198293       2.86358807         0.00000000       0.00000000       0.00000000          1
6
pbc=[F, F, F] list_num_par=6 frozen=false iter=89 energy=-0.02264143 Lattice="15.00000000 0.00000000 0.00000000 0.00000000 15.00000000 0.00000000 0.00000000 0.00000000 15.00000000" energy_frozen_part=0.00000000 Properties=species:S:1:pos:R:3:velocities:R:3:Z:I:1
H        11.60467744       5.18798912       2.77341549         0.00000000       0.00000000       0.00000000          1
H         1.46257647       1.71269686       4.24816626         0.00000000       0.00000000       0.00000000          1
H         8.22135876      14.51544758       3.12411302         0.00000000       0.00000000       0.00000000          1
H         8.69601685       0.74888369       5.64767654         0.00000000       0.00000000       0.00000000          1
H         0.69049776       5.65875821       4.88590689         0.00000000       0.00000000       0.00000000          1
H         1.55327191      13.44552920      11.32474972         0.00000000       0.00000000       0.00000000          1
6
pbc=[F, F, F] list_num_par=6 frozen=false iter=99 energy=-0.02535357 Lattice="15.00000000 0.00000000 0.00000000 0.00000000 15.00000000 0.00000000 0.00000000 0.00000000 15.00000000" energy_frozen_part=0.00000000 Properties=species:S:1:pos:R:3:velocities:R:3:Z:I:1
H         1.69387559       0.97658905      12.56360920         0.00000000       0.00000000       0.00000000          1
H        14.44172622       9.27290540       8.32520932         0.00000000       0.00000000       0.00000000          1
H         7.50174389      10.92632081       3.94395890         0.00000000       0.00000000       0.00000000          1
H         0.28149122      14.88435042      11.82975274         0.00000000       0.00000000       0.00000000          1
H         5.11378940      11.99149579       1.02711971         0.00000000       0.00000000       0.00000000          1
H        11.17759955       0.97281058      11.76990447         0.00000000       0.00000000       0.00000000          1
6
pbc=[F, F, F] list_num_par=6 frozen=false iter=109 energy=-0.02964968 Lattice="15.00000000 0.00000000 0.00000000 0.00000000 15.00000000 0.00000000 0.00000000 0.00000000 15.00000000" energy_frozen_part=0.00000000 Properties=species:S:1:pos:R:3:velocities:R:3:Z:I:1
H         5.96883282       1.79388829      14.75972409         0.00000000       0.00000000       0.00000000          1
H         4.51325965       9.97384965       2.79351646         0.00000000       0.00000000       0.00000000          1
H        11.53611010       5.04228608      14.46140337         0.00000000       0.00000000       0.00000000          1
H        10.73434620       0.29708821       5.24279638         0.00000000       0.00000000       0.00000000          1
H         5.46721527       1.11784608      10.67816310         0.00000000       0.00000000       0.00000000          1
H         3.58284550       8.98731810       7.18641856         0.00000000       0.00000000       0.00000000          1
6
pbc=[F, F, F] list_num_par=6 frozen=false iter=119 energy=-0.03318207 Lattice="15.00000000 0.00000000 0.00000000 0.00000000 15.00000000 0.00000000 0.00000000 0.00000000 15.00000000" energy_frozen_part=0.00000000 Properties=species:S:1:pos:R:3:velocities:R:3:Z:I:1
H         5.16493546      14.72999920       6.42218795         0.00000000       0.00000000       0.00000000          1
H        11.64513201       4.05049586       7.93490949         0.00000000       0.00000000       0.00000000          1
H         3.32359936      11.51523823       4.85915025         0.00000000       0.00000000       0.00000000          1
H        14.66978360      13.02113262      12.32428117         0.00000000       0.00000000       0.00000000          1
H         3.25444504       4.68079504       8.86909960         0.00000000       0.00000000       0.00000000          1
H        10.16792956      12.76078966      11.69634089         0.00000000       0.00000000       0.00000000          1
6
pbc=[F, F, F] list_num_par=6 frozen=false iter=129 energy=-0.03637968 Lattice="15.00000000 0.00000000 0.00000000 0.00000000 15.00000000 0.00000000 0.00000000 0.00000000 15.00000000" energy_frozen_part=0.00000000 Properties=species:S:1:pos:R:3:velocities:R:3:Z:I:1
H         5.43416616       8.97574561       9.51561787         0.00000000       0.00000000       0.00000000          1
H         9.76121663      12.65195351       6.86015476         0.00000000       0.00000000       0.00000000          1
H        10.77892910       4.57368180       3.96993829         0.00000000       0.00000000       0.00000000          1
H         8.65060449      12.17684203      10.99149721         0.00000000       0.00000000       0.00000000          1
H         7.73919851       4.68647780       8.02380928         0.00000000       0.00000000       0.00000000          1
H        10.08750954       0.05812584      13.24880753         0.00000000       0.00000000       0.00000000          1
6
pbc=[F, F, F] list_num_par=6 frozen=false iter=139 energy=-0.03919942 Lattice="15.00000000 0.00000000 0.00000000 0.00000000 15.00000000 0.00000000 0.00000000 0.00000000 15.00000000" energy_frozen_part=0.00000000 Properties=species:S:1:pos:R:3:velocities:R:3:Z:I:1
H         8.09620622       3.28377905       7.46818729         0.00000000       0.00000000       0.00000000          1
H         9.65077882       6.61289703       7.44065710         0.00000000       0.00000000       0.00000000          1
H         3.23354427       1.46466072       2.88819049         0.00000000       0.00000000       0.00000000          1
H         6.00127895      14.19138289       5.91252529         0.00000000       0.00000000       0.00000000          1
H         2.86596298       6.93016225       0.75201937         0.00000000       0.00000000       0.00000000          1
H         3.49396174       8.64058392      13.46162961         0.00000000       0.00000000       0.00000000          1
6
pbc=[F, F, F] list_num_par=6 frozen=false iter=149 energy=-0.04305812 Lattice="15.00000000 0.00000000 0.00000000 0.00000000 15.00000000 0.00000000 0.00000000 0.00000000 15.00000000" energy_frozen_part=0.00000000 Properties=species:S:1:pos:R:3:velocities:R:3:Z:I:1
H         5.45565904       6.91711291       8.58933865         0.00000000       0.00000000       0.00000000          1
H         2.24503859       8.88696357      10.16042895         0.00000000       0.00000000       0.00000000          1
H        14.32372543       9.24331925       2.96286749         0.00000000       0.00000000       0.00000000          1
H         9.77048049       0.07183392       7.99663947         0.00000000       0.00000000       0.00000000          1
H        10.98667931       8.64045518       0.83722721         0.00000000       0.00000000       0.00000000          1
H         0.46974763      10.91021335       3.13650491         0.00000000       0.00000000       0.00000000          1
6
pbc=[F, F, F] list_num_par=6 frozen=false iter=159 energy=-0.04653145 Lattice="15.00000000 0.00000000 0.00000000 0.00000000 15.00000000 0.00000000 0.00000000 0.00000000 15.00000000" energy_frozen_part=0.00000000 Properties=species:S:1:pos:R:3:velocities:R:3:Z:I:1
H        14.48900755       0.63753055       1.36383800         0.00000000       0.00000000       0.00000000          1
H         3.63055563      10.65463695       2.09757039         0.00000000       0.00000000       0.00000000          1
H         1.46454137       7.17158259       8.94499691         0.00000000       0.00000000       0.00000000          1
H         9.12927021       7.82699772      14.18212777         0.00000000       0.00000000       0.00000000          1
H         2.80679188       7.43200651       0.96323065         0.00000000       0.00000000       0.00000000          1
H        14.96712229      10.90408083      12.75207475         0.00000000       0.00000000       0.00000000          1
6
pbc=[F, F, F] list_num_par=6 frozen=false iter=169 energy=-0.05060269 Lattice="15.00000000 0.00000000 0.00000000 0.00000000 15.00000000 0.00000000 0.00000000 0.00000000 15.00000000" energy_frozen_part=0.00000000 Properties=species:S:1:pos:R:3:velocities:R:3:Z:I:1
H         1.37122465       2.31272260       3.43976432         0.00000000       0.00000000       0.00000000          1
H         5.36251043      10.35460263      10.97676700         0.00000000       0.00000000       0.00000000          1
H         7.02785513      13.87304909      12.39293027         0.00000000       0.00000000       0.00000000          1
H        12.33725972      11.72252238       1.10613899         0.00000000       0.00000000       0.00000000          1
H         8.64856739       7.72638811       7.76482844         0.00000000       0.00000000       0.00000000          1
H         4.20264288       4.36410830       5.17085872         0.00000000       0.00000000       0.00000000          1
6
pbc=[F, F, F] list_num_par=6 frozen=false iter=179 energy=-0.05525261 Lattice="15.00000000 0.00000000 0.00000000 0.00000000 15.00000000 0.00000000 0.00000000 0.00000000 15.00000000" energy_frozen_part=0.00000000 Properties=species:S:1:pos:R:3:velocities:R:3:Z:I:1
H         6.39688230       2.35407796       9.42935561         0.00000000       0.00000000       0.00000000          1
H         9.05640944      10.80592002       6.11281828         0.00000000       0.00000000       0.00000000          1
H         2.82269815       2.52048619       8.26886358         0.00000000       0.00000000       0.00000000          1
H         2.22055200       6.90436977       3.14257539         0.00000000       0.00000000       0.00000000          1
H         3.25903668      10.75966145      13.03042462         0.00000000       0.00000000       0.00000000          1
H         8.09459368       6.07227770       8.38937296         0.00000000       0.00000000       0.00000000          1
6
pbc=[F, F, F] list_num_par=6 frozen=false iter=189 energy=-0.06100650 Lattice="15.00000000 0.00000000 0.00000000 0.00000000 15.00000000 0.00000000 0.00000000 0.00000000 15.00000000" energy_frozen_part=0.00000000 Properties=species:S:1:pos:R:3:velocities:R:3:Z:I:1
H        10.08027424      13.36816181      10.00598043         0.00000000       0.00000000       0.00000000          1
H         3.42616731       5.41127068       5.73494231         0.00000000       0.00000000       0.00000000          1
H         8.72938932       2.49014138       1.08222062         0.00000000       0.00000000       0.00000000          1
H         0.50811468      14.63116094       7.67614211         0.00000000       0.00000000       0.00000000          1
H         3.96904953       7.40397421       4.18963671         0.00000000       0.00000000       0.00000000          1
H        13.32006493       9.05942434       8.90303289         0.00000000       0.00000000       0.00000000          1
6
pbc=[F, F, F] list_num_par=6 frozen=false iter=199 energy=-0.06780355 Lattice="15.00000000 0.00000000 0.00000000 0.00000000 15.00000000 0.00000000 0.00000000 0.00000000 15.00000000" energy_frozen_part=0.00000000 Properties=species:S:1:pos:R:3:velocities:R:3:Z:I:1
H         5.81553858       6.72852105      12.34044584         0.00000000       0.00000000       0.00000000          1
H         4.16484823      11.57686548       8.42883518         0.00000000       0.00000000       0.00000000          1
H        13.67758709       8.38496889       4.64679220         0.00000000       0.00000000       0.00000000          1
H         0.06845172       3.39334282       1.35565972         0.00000000       0.00000000       0.00000000          1
H        11.83569416       8.36493600      12.62969808         0.00000000       0.00000000       0.00000000          1
H         2.22397565       8.95334647       8.06842773         0.00000000       0.00000000       0.00000000          1
6
pbc=[F, F, F] list_num_par=6 frozen=false iter=209 energy=-0.07115787 Lattice="15.00000000 0.00000000 0.00000000 0.00000000 15.00000000 0.00000000 0.00000000 0.00000000 15.00000000" energy_frozen_part=0.00000000 Properties=species:S:1:pos:R:3:velocities:R:3:Z:I:1
H         4.59689254       5.04969743       2.67334346         0.00000000       0.00000000       0.00000000          1
H        12.41262810       7.96313898      13.57306960         0.00000000       0.00000000       0.00000000          1
H         3.00289616      12.28192889      14.01306468         0.00000000       0.00000000       0.00000000          1
H        13.69206875      12.17558000       2.21894712         0.00000000       0.00000000       0.00000000          1
H        11.41691011      13.12651560       8.48612075         0.00000000       0.00000000       0.00000000          1
H         8.98356045      12.28851373       8.89394484         0.00000000       0.00000000       0.00000000          1
6
pbc=[F, F, F] list_num_par=6 frozen=false iter=219 energy=-0.07827558 Lattice="15.00000000 0.00000000 0.00000000 0.00000000 15.00000000 0.00000000 0.00000000 0.00000000 15.00000000" energy_frozen_part=0.00000000 Properties=species:S:1:pos:R:3:velocities:R:3:Z:I:1
H         5.10501172       1.72756020      12.53145968         0.00000000       0.00000000       0.00000000          1
H         6.02904653      10.42660241       9.19658601         0.00000000       0.00000000       0.00000000          1
H         1.40794023       2.75026670       1.16755729         0.00000000       0.00000000       0.00000000          1
H         4.55307312       1.68981014       2.16585605         0.00000000       0.00000000       0.00000000          1
H         6.97789367       6.50155328       1.91817647         0.00000000       0.00000000       0.00000000          1
H         2.05240016       5.62223553       4.22567677         0.00000000       0.00000000       0.00000000          1
6
pbc=[F, F, F] list_num_par=6 frozen=false iter=229 energy=-0.08235146 Lattice="15.00000000 0.00000000 0.00000000 0.00000000 15.00000000 0.00000000 0.00000000 0.00000000 15.00000000" energy_frozen_part=0.00000000 Properties=species:S:1:pos:R:3:velocities:R:3:Z:I:1
H         8.78572475       3.17510821       5.94497489         0.00000000       0.00000000       0.00000000          1
H        10.81256901       2.08657667       7.15973079         0.00000000       0.00000000       0.00000000          1
H         1.23224925       8.34533965       8.50487825         0.00000000       0.00000000       0.00000000          1
H        12.50226274       8.46945008       3.65033610         0.00000000       0.00000000       0.00000000          1
H         3.12192027      10.40045694      13.87048968         0.00000000       0.00000000       0.00000000          1
H         6.50282811       3.74923458      10.10161313         0.00000000       0.00000000       0.00000000          1
6
pbc=[F, F, F] list_num_par=6 frozen=false iter=239 energy=-0.08696553 Lattice="15.00000000 0.00000000 0.00000000 0.00000000 15.00000000 0.00000000 0.00000000 0.00000000 15.00000000" energy_frozen_part=0.00000000 Properties=species:S:1:pos:R:3:velocities:R:3:Z:I:1
H         6.97169363      10.28842014       1.94393109         0.00000000       0.00000000       0.00000000          1
H        11.26693703       0.26798868       4.08148384         0.00000000       0.00000000       0.00000000          1
H         5.39324474      12.81335644       3.07246240         0.00000000       0.00000000       0.00000000          1
H        10.40059190      13.89611422       1.75408502         0.00000000       0.00000000       0.00000000          1
H         9.33698793       5.52865296       8.04082121         0.00000000       0.00000000       0.00000000          1
H         4.10861507      11.21077957       8.40602434         0.00000000       0.00000000       0.00000000          1
6
pbc=[F, F, F] list_num_par=6 frozen=false iter=249 energy=-0.08980256 Lattice="15.00000000 0.00000000 0.00000000 0.00000000 15.00000000 0.00000000 0.00000000 0.00000000 15.00000000" energy_frozen_part=0.00000000 Properties=species:S:1:pos:R:3:velocities:R:3:Z:I:1
H         6.33137822       3.35583457      13.48396397         0.00000000       0.00000000       0.00000000          1
H         6.72832908      11.81420853       7.18718205         0.00000000       0.00000000       0.00000000          1
H         9.49360107       0.81408701       9.66198355         0.00000000       0.00000000       0.00000000          1
H         5.28846625       3.16730374       4.50436667         0.00000000       0.00000000       0.00000000          1
H         5.73163505       3.30244377       9.67425511         0.00000000       0.00000000       0.00000000          1
H         8.78206163      10.33182178       4.68321541         0.00000000       0.00000000       0.00000000          1
6
pbc=[F, F, F] list_num_par=6 frozen=false iter=259 energy=-0.09506740 Lattice="15.00000000 0.00000000 0.00000000 0.00000000 15.00000000 0.00000000 0.00000000 0.00000000 15.00000000" energy_frozen_part=0.00000000 Properties=species:S:1:pos:R:3:velocities:R:3:Z:I:1
H        11.48075878      11.54172745       9.41301074         0.00000000       0.00000000       0.00000000          1
H        13.83603335       3.43532352       0.90309399         0.00000000       0.00000000       0.00000000          1
H         3.44352043       6.59913118      14.37494059         0.00000000       0.00000000       0.00000000          1
H         7.18845650      10.89950716       9.66046003         0.00000000       0.00000000       0.00000000          1
H        13.45067993      10.99947747      11.07823196         0.00000000       0.00000000       0.00000000          1
H         7.64473867      12.85284958       1.63701657         0.00000000       0.00000000       0.00000000          1
6
pbc=[F, F, F] list_num_par=6 frozen=false iter=269 energy=-0.09846125 Lattice="15.00000000 0.00000000 0.00000000 0.00000000 15.00000000 0.00000000 0.00000000 0.00000000 15.00000000" energy_frozen_part=0.00000000 Properties=species:S:1:pos:R:3:velocities:R:3:Z:I:1
H         5.34221181       2.52469240      13.53860716         0.00000000       0.00000000       0.00000000          1
H         1.86948571       8.65037081       0.80688916         0.00000000       0.00000000       0.00000000          1
H        11.41246380       4.32360469      13.95841319         0.00000000       0.00000000       0.00000000          1
H         7.22960151       8.34638637       0.15398815         0.00000000       0.00000000       0.00000000          1
H         6.36830684      10.23409626      13.00619882         0.00000000       0.00000000       0.00000000          1
H         7.04576106      11.29212210       0.60650498         0.00000000       0.00000000       0.00000000          1
6
pbc=[F, F, F] list_num_par=6 frozen=false iter=279 energy=-0.10132400 Lattice="15.00000000 0.00000000 0.00000000 0.00000000 15.00000000 0.00000000 0.00000000 0.00000000 15.00000000" energy_frozen_part=0.00000000 Properties=species:S:1:pos:R:3:velocities:R:3:Z:I:1
H         1.50312881      12.26068250       3.98031448         0.00000000       0.00000000       0.00000000          1
H         7.84481555       7.17743056       8.19865867         0.00000000       0.00000000       0.00000000          1
H         6.06826068       5.13455640       9.98603586         0.00000000       0.00000000       0.00000000          1
H        11.50329426      12.15009616       9.19615329         0.00000000       0.00000000       0.00000000          1
H         1.57086991       8.46717402       2.57995945         0.00000000       0.00000000       0.00000000          1
H         9.13716175      14.35146660       6.09868957         0.00000000       0.00000000       0.00000000          1
6
pbc=[F, F, F] list_num_par=6 frozen=false iter=289 energy=-0.10394868 Lattice="15.00000000 0.00000000 0.00000000 0.00000000 15.00000000 0.00000000 0.00000000 0.00000000 15.00000000" energy_frozen_part=0.00000000 Properties=species:S:1:pos:R:3:velocities:R:3:Z:I:1
H         2.95608461       7.22265208       4.92820124         0.00000000       0.00000000       0.00000000          1
H         7.95526975      12.41153355       1.73120878         0.00000000       0.00000000       0.00000000          1
H        12.32080727       2.35066163       4.78483033         0.00000000       0.00000000       0.00000000          1
H         6.47423824       2.50784953       4.73901944         0.00000000       0.00000000       0.00000000          1
H         6.54388651       0.33828382       6.66152049         0.00000000       0.00000000       0.00000000          1
H        14.64131099      10.22109906       0.91200095         0.00000000       0.00000000       0.00000000          1
6
pbc=[F, F, F] list_num_par=6 frozen=false iter=299 energy=-0.10606198 Lattice="15.00000000 0.00000000 0.00000000 0.00000000 15.00000000 0.00000000 0.00000000 0.00000000 15.00000000" energy_frozen_part=0.00000000 Properties=species:S:1:pos:R:3:velocities:R:3:Z:I:1
H        12.70850042      14.65742217       8.44662266         0.00000000       0.00000000       0.00000000          1
H         4.19905604       9.01077021       8.43492199         0.00000000       0.00000000       0.00000000          1
H        12.56973099       0.92374929       2.48446452         0.00000000       0.00000000       0.00000000          1
H         0.53350495      10.71232737       6.50355259         0.00000000       0.00000000       0.00000000          1
H        11.36318757      13.46708876      10.92739117         0.00000000       0.00000000       0.00000000          1
H         2.47638821       4.99947014       9.80013755         0.00000000       0.00000000       0.00000000          1
6
pbc=[F, F, F] list_num_par=6 frozen=false iter=309 energy=-0.10759444 Lattice="15.00000000 0.00000000 0.00000000 0.00000000 15.00000000 0.00000000 0.00000000 0.00000000 15.00000000" energy_frozen_part=0.00000000 Properties=species:S:1:pos:R:3:velocities:R:3:Z:I:1
H         7.53592789       7.03896310       1.33624476         0.00000000       0.00000000       0.00000000          1
H         2.64468246       7.19231529      12.45487587         0.00000000       0.00000000       0.00000000          1