6
pbc=[F, F, F] list_num_par=6 frozen=false iter=20000 energy=-1.26974174 Lattice="15.00000000 0.00000000 0.00000000 0.00000000 15.00000000 0.00000000 0.00000000 0.00000000 15.00000000" energy_frozen_part=0.00000000 Properties=species:S:1:pos:R:3:velocities:R:3:Z:I:1
H        10.04296976       4.75696045       4.61292696         0.00000000       0.00000000       0.00000000          1
H         8.53064382       6.67941219       3.26337407         0.00000000       0.00000000       0.00000000          1
H         9.55265083       8.66317094       4.94398991         0.00000000       0.00000000       0.00000000          1
H        11.29324743       7.00428959       3.52177051         0.00000000       0.00000000       0.00000000          1
H         8.30237853       6.41584639       6.03515077         0.00000000       0.00000000       0.00000000          1
H        11.06498057       6.74071784       6.29354274         0.00000000       0.00000000       0.00000000          1
6
pbc=[F, F, F] list_num_par=6 frozen=false iter=20000 energy=-1.26974174 Lattice="15.00000000 0.00000000 0.00000000 0.00000000 15.00000000 0.00000000 0.00000000 0.00000000 15.00000000" energy_frozen_part=0.00000000 Properties=species:S:1:pos:R:3:velocities:R:3:Z:I:1
H        10.06968409       4.87248443       4.43674701         0.00000000       0.00000000       0.00000000          1
H         8.63464672       6.98394042       3.30243003         0.00000000       0.00000000       0.00000000          1
H         9.74079046       8.74022441       5.17223520         0.00000000       0.00000000       0.00000000          1
H        11.40880043       7.16794086       3.57538526         0.00000000       0.00000000       0.00000000          1
H         8.40168220       6.44476931       6.03360290         0.00000000       0.00000000       0.00000000          1
H        11.17583289       6.62877403       6.30655842         0.00000000       0.00000000       0.00000000          1
6
pbc=[F, F, F] list_num_par=6 frozen=false iter=20000 energy=-1.26974174 Lattice="15.00000000 0.00000000 0.00000000 0.00000000 15.00000000 0.00000000 0.00000000 0.00000000 15.00000000" energy_frozen_part=0.00000000 Properties=species:S:1:pos:R:3:velocities:R:3:Z:I:1
H        10.06971102       4.87251381       4.43669286         0.00000000       0.00000000       0.00000000          1
H         8.63459133       6.98395821       3.30243943         0.00000000       0.00000000       0.00000000          1
H         9.74074573       8.74024185       5.17225385         0.00000000       0.00000000       0.00000000          1
H        11.40875341       7.16801395       3.57533406         0.00000000       0.00000000       0.00000000          1
H         8.40170372       6.44474255       6.03360972         0.00000000       0.00000000       0.00000000          1
H        11.17586121       6.62879013       6.30650083         0.00000000       0.00000000       0.00000000          1
6
pbc=[F, F, F] list_num_par=6 frozen=false iter=20000 energy=-1.26974174 Lattice="15.00000000 0.00000000 0.00000000 0.00000000 15.00000000 0.00000000 0.00000000 0.00000000 15.00000000" energy_frozen_part=0.00000000 Properties=species:S:1:pos:R:3:velocities:R:3:Z:I:1
H        10.04280594       4.75704570       4.61291526         0.00000000       0.00000000       0.00000000          1
H         8.53041071       6.67949063       3.26341077         0.00000000       0.00000000       0.00000000          1
H         9.55271961       8.66331949       4.94376703         0.00000000       0.00000000       0.00000000          1
H        11.29306093       7.00424176       3.52146282         0.00000000       0.00000000       0.00000000          1
H         8.30246362       6.41612048       6.03522536         0.00000000       0.00000000       0.00000000          1
H        11.06511387       6.74087710       6.29328015         0.00000000       0.00000000       0.00000000          1
6
pbc=[F, F, F] list_num_par=6 frozen=false iter=20000 energy=-1.26974174 Lattice="15.00000000 0.00000000 0.00000000 0.00000000 15.00000000 0.00000000 0.00000000 0.00000000 15.00000000" energy_frozen_part=0.00000000 Properties=species:S:1:pos:R:3:velocities:R:3:Z:I:1
H        10.06858549       4.87193884       4.43666659         0.00000000       0.00000000       0.00000000          1
H         8.63372920       6.98487673       3.30487688         0.00000000       0.00000000       0.00000000          1
H         9.74372963       8.73971478       5.17375103         0.00000000       0.00000000       0.00000000          1
H        11.40839062       7.16659156       3.57422993         0.00000000       0.00000000       0.00000000          1
H         8.40392844       6.44506161       6.03618832         0.00000000       0.00000000       0.00000000          1
H        11.17858756       6.62677674       6.30554577         0.00000000       0.00000000       0.00000000          1
6
pbc=[F, F, F] list_num_par=6 frozen=false iter=20000 energy=-1.26974174 Lattice="15.00000000 0.00000000 0.00000000 0.00000000 15.00000000 0.00000000 0.00000000 0.00000000 15.00000000" energy_frozen_part=0.00000000 Properties=species:S:1:pos:R:3:velocities:R:3:Z:I:1
H        10.06971595       4.87266051       4.43698109         0.00000000       0.00000000       0.00000000          1
H         8.63440735       6.98401249       3.30280417         0.00000000       0.00000000       0.00000000          1
H         9.74093038       8.74045369       5.17223989         0.00000000       0.00000000       0.00000000          1
H        11.40861922       7.16806624       3.57515197         0.00000000       0.00000000       0.00000000          1
H         8.40203349       6.44504829       6.03407695         0.00000000       0.00000000       0.00000000          1
H        11.17624300       6.62910558       6.30641177         0.00000000       0.00000000       0.00000000          1
6
pbc=[F, F, F] list_num_par=6 frozen=false iter=20000 energy=-1.26974174 Lattice="15.00000000 0.00000000 0.00000000 0.00000000 15.00000000 0.00000000 0.00000000 0.00000000 15.00000000" energy_frozen_part=0.00000000 Properties=species:S:1:pos:R:3:velocities:R:3:Z:I:1
H        10.06969770       4.87248987       4.43673718         0.00000000       0.00000000       0.00000000          1
H         8.63460398       6.98393353       3.30244949         0.00000000       0.00000000       0.00000000          1
H         9.74074849       8.74023251       5.17224661         0.00000000       0.00000000       0.00000000          1
H        11.40875744       7.16797867       3.57536219         0.00000000       0.00000000       0.00000000          1
H         8.40169607       6.44474667       6.03362745         0.00000000       0.00000000       0.00000000          1
H        11.17585353       6.62878812       6.30653261         0.00000000       0.00000000       0.00000000          1
6
pbc=[F, F, F] list_num_par=6 frozen=false iter=20000 energy=-1.26974174 Lattice="15.00000000 0.00000000 0.00000000 0.00000000 15.00000000 0.00000000 0.00000000 0.00000000 15.00000000" energy_frozen_part=0.00000000 Properties=species:S:1:pos:R:3:velocities:R:3:Z:I:1
H        10.06975109       4.87248548       4.43664047         0.00000000       0.00000000       0.00000000          1
H         8.63455961       6.98395524       3.30252591         0.00000000       0.00000000       0.00000000          1
H         9.74081039       8.74019738       5.17231533         0.00000000       0.00000000       0.00000000          1
H        11.40872917       7.16802144       3.57525819         0.00000000       0.00000000       0.00000000          1
H         8.40183995       6.44467043       6.03369831         0.00000000       0.00000000       0.00000000          1
H        11.17600499       6.62872412       6.30642612         0.00000000       0.00000000       0.00000000          1
6
pbc=[F, F, F] list_num_par=6 frozen=false iter=20000 energy=-1.26974174 Lattice="15.00000000 0.00000000 0.00000000 0.00000000 15.00000000 0.00000000 0.00000000 0.00000000 15.00000000" energy_frozen_part=0.00000000 Properties=species:S:1:pos:R:3:velocities:R:3:Z:I:1
H        10.06973298       4.87266132       4.43695397         0.00000000       0.00000000       0.00000000          1
H         8.63442827       6.98402415       3.30279312         0.00000000       0.00000000       0.00000000          1
H         9.74092703       8.74044019       5.17227174         0.00000000       0.00000000       0.00000000          1
H        11.40863547       7.16807729       3.57517369         0.00000000       0.00000000       0.00000000          1
H         8.40201936       6.44502359       6.03404364         0.00000000       0.00000000       0.00000000          1
H        11.17623154       6.62907413       6.30643362         0.00000000       0.00000000       0.00000000          1
6
pbc=[F, F, F] list_num_par=6 frozen=false iter=20000 energy=-1.26974174 Lattice="15.00000000 0.00000000 0.00000000 0.00000000 15.00000000 0.00000000 0.00000000 0.00000000 15.00000000" energy_frozen_part=0.00000000 Properties=species:S:1:pos:R:3:velocities:R:3:Z:I:1
H        10.06969290       4.87251399       4.43675318         0.00000000       0.00000000       0.00000000          1
H         8.63465176       6.98396361       3.30242899         0.00000000       0.00000000       0.00000000          1
H         9.74080060       8.74026557       5.17222715         0.00000000       0.00000000       0.00000000          1
H        11.40880262       7.16796218       3.57537590         0.00000000       0.00000000       0.00000000          1
H         8.40168470       6.44481187       6.03359964         0.00000000       0.00000000       0.00000000          1
H        11.17583558       6.62880949       6.30655113         0.00000000       0.00000000       0.00000000          1
6
pbc=[F, F, F] list_num_par=6 frozen=false iter=20000 energy=-1.26974174 Lattice="15.00000000 0.00000000 0.00000000 0.00000000 15.00000000 0.00000000 0.00000000 0.00000000 15.00000000" energy_frozen_part=0.00000000 Properties=species:S:1:pos:R:3:velocities:R:3:Z:I:1
H        10.06967503       4.87251987       4.43676815         0.00000000       0.00000000       0.00000000          1
H         8.63464783       6.98398419       3.30244214         0.00000000       0.00000000       0.00000000          1
H         9.74080008       8.74026883       5.17225478         0.00000000       0.00000000       0.00000000          1
H        11.40879446       7.16797183       3.57540252         0.00000000       0.00000000       0.00000000          1
H         8.40167621       6.44482361       6.03361524         0.00000000       0.00000000       0.00000000          1
H        11.17583390       6.62879831       6.30657709         0.00000000       0.00000000       0.00000000          1
6
pbc=[F, F, F] list_num_par=6 frozen=false iter=20000 energy=-1.26974174 Lattice="15.00000000 0.00000000 0.00000000 0.00000000 15.00000000 0.00000000 0.00000000 0.00000000 15.00000000" energy_frozen_part=0.00000000 Properties=species:S:1:pos:R:3:velocities:R:3:Z:I:1
H        10.06966830       4.87251189       4.43674868         0.00000000       0.00000000       0.00000000          1
H         8.63463769       6.98398889       3.30244094         0.00000000       0.00000000       0.00000000          1
H         9.74080297       8.74025370       5.17225846         0.00000000       0.00000000       0.00000000          1
H        11.40879754       7.16796493       3.57539051         0.00000000       0.00000000       0.00000000          1
H         8.40167745       6.44481261       6.03361492         0.00000000       0.00000000       0.00000000          1
H        11.17583457       6.62877655       6.30656279         0.00000000       0.00000000       0.00000000          1
6
pbc=[F, F, F] list_num_par=6 frozen=false iter=20000 energy=-1.26974174 Lattice="15.00000000 0.00000000 0.00000000 0.00000000 15.00000000 0.00000000 0.00000000 0.00000000 15.00000000" energy_frozen_part=0.00000000 Properties=species:S:1:pos:R:3:velocities:R:3:Z:I:1
H        10.06975717       4.87263792       4.43698011         0.00000000       0.00000000       0.00000000          1
H         8.63444210       6.98398910       3.30279190         0.00000000       0.00000000       0.00000000          1
H         9.74093501       8.74043097       5.17224278         0.00000000       0.00000000       0.00000000          1
H        11.40864900       7.16805880       3.57516648         0.00000000       0.00000000       0.00000000          1
H         8.40203598       6.44501673       6.03405176         0.00000000       0.00000000       0.00000000          1
H        11.17624498       6.62908773       6.30643180         0.00000000       0.00000000       0.00000000          1
6
pbc=[F, F, F] list_num_par=6 frozen=false iter=20000 energy=-1.26974174 Lattice="15.00000000 0.00000000 0.00000000 0.00000000 15.00000000 0.00000000 0.00000000 0.00000000 15.00000000" energy_frozen_part=0.00000000 Properties=species:S:1:pos:R:3:velocities:R:3:Z:I:1
H        10.06849271       4.87199276       4.43659415         0.00000000       0.00000000       0.00000000          1
H         8.63367425       6.98500453       3.30487909         0.00000000       0.00000000       0.00000000          1
H         9.74379772       8.73977070       5.17374966         0.00000000       0.00000000       0.00000000          1
H        11.40834580       7.16660561       3.57415477         0.00000000       0.00000000       0.00000000          1
H         8.40394517       6.44515323       6.03619542         0.00000000       0.00000000       0.00000000          1
H        11.17861475       6.62675753       6.30547244         0.00000000       0.00000000       0.00000000          1
6
pbc=[F, F, F] list_num_par=6 frozen=false iter=20000 energy=-1.26974174 Lattice="15.00000000 0.00000000 0.00000000 0.00000000 15.00000000 0.00000000 0.00000000 0.00000000 15.00000000" energy_frozen_part=0.00000000 Properties=species:S:1:pos:R:3:velocities:R:3:Z:I:1
H        10.04296751       4.75695104       4.61295708         0.00000000       0.00000000       0.00000000          1
H         8.53063756       6.67939283       3.26337237         0.00000000       0.00000000       0.00000000          1
H         9.55263566       8.66317571       4.94396551         0.00000000       0.00000000       0.00000000          1
H        11.29323394       7.00426958       3.52177208         0.00000000       0.00000000       0.00000000          1
H         8.30236504       6.41585585       6.03514766         0.00000000       0.00000000       0.00000000          1
H        11.06497396       6.74073619       6.29354280         0.00000000       0.00000000       0.00000000          1
6
pbc=[F, F, F] list_num_par=6 frozen=false iter=20000 energy=-1.26974174 Lattice="15.00000000 0.00000000 0.00000000 0.00000000 15.00000000 0.00000000 0.00000000 0.00000000 15.00000000" energy_frozen_part=0.00000000 Properties=species:S:1:pos:R:3:velocities:R:3:Z:I:1
H        10.06977172       4.87241994       4.43674424         0.00000000       0.00000000       0.00000000          1
H         8.63463400       6.98385907       3.30251100         0.00000000       0.00000000       0.00000000          1
H         9.74081719       8.74014178       5.17230054         0.00000000       0.00000000       0.00000000          1
H        11.40879500       7.16791858       3.57535571         0.00000000       0.00000000       0.00000000          1
H         8.40180082       6.44464253       6.03368611         0.00000000       0.00000000       0.00000000          1
H        11.17596229       6.62870668       6.30653478         0.00000000       0.00000000       0.00000000          1
6
pbc=[F, F, F] list_num_par=6 frozen=false iter=20000 energy=-1.26974174 Lattice="15.00000000 0.00000000 0.00000000 0.00000000 15.00000000 0.00000000 0.00000000 0.00000000 15.00000000" energy_frozen_part=0.00000000 Properties=species:S:1:pos:R:3:velocities:R:3:Z:I:1
H        10.06969982       4.87250351       4.43674338         0.00000000       0.00000000       0.00000000          1
H         8.63460612       6.98393880       3.30245097         0.00000000       0.00000000       0.00000000          1
H         9.74076089       8.74024104       5.17224159         0.00000000       0.00000000       0.00000000          1
H        11.40876111       7.16798614       3.57534584         0.00000000       0.00000000       0.00000000          1
H         8.40170346       6.44476859       6.03363571         0.00000000       0.00000000       0.00000000          1
H        11.17586279       6.62880652       6.30652572         0.00000000       0.00000000       0.00000000          1
6
pbc=[F, F, F] list_num_par=6 frozen=false iter=20000 energy=-1.26974174 Lattice="15.00000000 0.00000000 0.00000000 0.00000000 15.00000000 0.00000000 0.00000000 0.00000000 15.00000000" energy_frozen_part=0.00000000 Properties=species:S:1:pos:R:3:velocities:R:3:Z:I:1
H        10.06968062       4.87252300       4.43676354         0.00000000       0.00000000       0.00000000          1
H         8.63464826       6.98398557       3.30244665         0.00000000       0.00000000       0.00000000          1
H         9.74079368       8.74026770       5.17225744         0.00000000       0.00000000       0.00000000          1
H        11.40880017       7.16797276       3.57540490         0.00000000       0.00000000       0.00000000          1
H         8.40168478       6.44481376       6.03362127         0.00000000       0.00000000       0.00000000          1
H        11.17583968       6.62880252       6.30656945         0.00000000       0.00000000       0.00000000          1
6
pbc=[F, F, F] list_num_par=6 frozen=false iter=20000 energy=-1.26974174 Lattice="15.00000000 0.00000000 0.00000000 0.00000000 15.00000000 0.00000000 0.00000000 0.00000000 15.00000000" energy_frozen_part=0.00000000 Properties=species:S:1:pos:R:3:velocities:R:3:Z:I:1
H        10.04294917       4.75694365       4.61292408         0.00000000       0.00000000       0.00000000          1
H         8.53063392       6.67941489       3.26336733         0.00000000       0.00000000       0.00000000          1
H         9.55264113       8.66316588       4.94399653         0.00000000       0.00000000       0.00000000          1
H        11.29323533       7.00426751       3.52177755         0.00000000       0.00000000       0.00000000          1
H         8.30235993       6.41583758       6.03513914         0.00000000       0.00000000       0.00000000          1
H        11.06496672       6.74070547       6.29354415         0.00000000       0.00000000       0.00000000          1
6
pbc=[F, F, F] list_num_par=6 frozen=false iter=20000 energy=-1.26974174 Lattice="15.00000000 0.00000000 0.00000000 0.00000000 15.00000000 0.00000000 0.00000000 0.00000000 15.00000000" energy_frozen_part=0.00000000 Properties=species:S:1:pos:R:3:velocities:R:3:Z:I:1
H        10.06977257       4.87241237       4.43678955         0.00000000       0.00000000       0.00000000          1
H         8.63465130       6.98383040       3.30251316         0.00000000       0.00000000       0.00000000          1
H         9.74083681       8.74015435       5.17226807         0.00000000       0.00000000       0.00000000          1
H        11.40881019       7.16788717       3.57535486         0.00000000       0.00000000       0.00000000          1
H         8.40180543       6.44468330       6.03369864         0.00000000       0.00000000       0.00000000          1
H        11.17596535       6.62872622       6.30653824         0.00000000       0.00000000       0.00000000          1
6
pbc=[F, F, F] list_num_par=6 frozen=false iter=20000 energy=-1.26974174 Lattice="15.00000000 0.00000000 0.00000000 0.00000000 15.00000000 0.00000000 0.00000000 0.00000000 15.00000000" energy_frozen_part=0.00000000 Properties=species:S:1:pos:R:3:velocities:R:3:Z:I:1
H        10.06848838       4.87199251       4.43659925         0.00000000       0.00000000       0.00000000          1
H         8.63367989       6.98499656       3.30488524         0.00000000       0.00000000       0.00000000          1
H         9.74379753       8.73977490       5.17375503         0.00000000       0.00000000       0.00000000          1
H        11.40834704       7.16660649       3.57416230         0.00000000       0.00000000       0.00000000          1
H         8.40394340       6.44515398       6.03620025         0.00000000       0.00000000       0.00000000          1
H        11.17860814       6.62676675       6.30547766         0.00000000       0.00000000       0.00000000          1
6
pbc=[F, F, F] list_num_par=6 frozen=false iter=20000 energy=-1.26974174 Lattice="15.00000000 0.00000000 0.00000000 0.00000000 15.00000000 0.00000000 0.00000000 0.00000000 15.00000000" energy_frozen_part=0.00000000 Properties=species:S:1:pos:R:3:velocities:R:3:Z:I:1
H        10.04298638       4.75697620       4.61295659         0.00000000       0.00000000       0.00000000          1
H         8.53064549       6.67943388       3.26341464         0.00000000       0.00000000       0.00000000          1
H         9.55266987       8.66319556       4.94401846         0.00000000       0.00000000       0.00000000          1
H        11.29325344       7.00430356       3.52179678         0.00000000       0.00000000       0.00000000          1
H         8.30241146       6.41586356       6.03518809         0.00000000       0.00000000       0.00000000          1
H        11.06500783       6.74074188       6.29356843         0.00000000       0.00000000       0.00000000          1
6
pbc=[F, F, F] list_num_par=6 frozen=false iter=20000 energy=-1.26974174 Lattice="15.00000000 0.00000000 0.00000000 0.00000000 15.00000000 0.00000000 0.00000000 0.00000000 15.00000000" energy_frozen_part=0.00000000 Properties=species:S:1:pos:R:3:velocities:R:3:Z:I:1
H        10.04300274       4.75695739       4.61290771         0.00000000       0.00000000       0.00000000          1
H         8.53061233       6.67941321       3.26340749         0.00000000       0.00000000       0.00000000          1
H         9.55262187       8.66316900       4.94402044         0.00000000       0.00000000       0.00000000          1
H        11.29321288       7.00431833       3.52175740         0.00000000       0.00000000       0.00000000          1
H         8.30240489       6.41580252       6.03517718         0.00000000       0.00000000       0.00000000          1
H        11.06500469       6.74071962       6.29353012         0.00000000       0.00000000       0.00000000          1
6
pbc=[F, F, F] list_num_par=6 frozen=false iter=20000 energy=-1.26974174 Lattice="15.00000000 0.00000000 0.00000000 0.00000000 15.00000000 0.00000000 0.00000000 0.00000000 15.00000000" energy_frozen_part=0.00000000 Properties=species:S:1:pos:R:3:velocities:R:3:Z:I:1
H        10.04275039       4.75691818       4.61303929         0.00000000       0.00000000       0.00000000          1
H         8.53075675       6.67949828       3.26327730         0.00000000       0.00000000       0.00000000          1
H         9.55321706       8.66328836       4.94359628         0.00000000       0.00000000       0.00000000          1
H        11.29343558       7.00385322       3.52154176         0.00000000       0.00000000       0.00000000          1
H         8.30253649       6.41634925       6.03508876         0.00000000       0.00000000       0.00000000          1
H        11.06521009       6.74070890       6.29335438         0.00000000       0.00000000       0.00000000          1
6
pbc=[F, F, F] list_num_par=6 frozen=false iter=20000 energy=-1.26974174 Lattice="15.00000000 0.00000000 0.00000000 0.00000000 15.00000000 0.00000000 0.00000000 0.00000000 15.00000000" energy_frozen_part=0.00000000 Properties=species:S:1:pos:R:3:velocities:R:3:Z:I:1
H        10.06969138       4.87249042       4.43674101         0.00000000       0.00000000       0.00000000          1
H         8.63467361       6.98395190       3.30238646         0.00000000       0.00000000       0.00000000          1
H         9.74079073       8.74023839       5.17220958         0.00000000       0.00000000       0.00000000          1
H        11.40882119       7.16794199       3.57538355         0.00000000       0.00000000       0.00000000          1
H         8.40165812       6.44479451       6.03355363         0.00000000       0.00000000       0.00000000          1
H        11.17580993       6.62878204       6.30656154         0.00000000       0.00000000       0.00000000          1
6
pbc=[F, F, F] list_num_par=6 frozen=false iter=20000 energy=-1.26974174 Lattice="15.00000000 0.00000000 0.00000000 0.00000000 15.00000000 0.00000000 0.00000000 0.00000000 15.00000000" energy_frozen_part=0.00000000 Properties=species:S:1:pos:R:3:velocities:R:3:Z:I:1
H        10.06849550       4.87200791       4.43660282         0.00000000       0.00000000       0.00000000          1
H         8.63366559       6.98500373       3.30488702         0.00000000       0.00000000       0.00000000          1
H         9.74376899       8.73979077       5.17375320         0.00000000       0.00000000       0.00000000          1
H        11.40833331       7.16663948       3.57416046         0.00000000       0.00000000       0.00000000          1
H         8.40394331       6.44515788       6.03620093         0.00000000       0.00000000       0.00000000          1
H        11.17860808       6.62679160       6.30546903         0.00000000       0.00000000       0.00000000          1
6
pbc=[F, F, F] list_num_par=6 frozen=false iter=20000 energy=-1.26974174 Lattice="15.00000000 0.00000000 0.00000000 0.00000000 15.00000000 0.00000000 0.00000000 0.00000000 15.00000000" energy_frozen_part=0.00000000 Properties=species:S:1:pos:R:3:velocities:R:3:Z:I:1
H        10.04294720       4.75695609       4.61291967         0.00000000       0.00000000       0.00000000          1
H         8.53063079       6.67942823       3.26337061         0.00000000       0.00000000       0.00000000          1
H         9.55264857       8.66317226       4.94399968         0.00000000       0.00000000       0.00000000          1
H        11.29323944       7.00427749       3.52177202         0.00000000       0.00000000       0.00000000          1
H         8.30236271       6.41585212       6.03514051         0.00000000       0.00000000       0.00000000          1
H        11.06497436       6.74070306       6.29354234         0.00000000       0.00000000       0.00000000          1
6
pbc=[F, F, F] list_num_par=6 frozen=false iter=20000 energy=-1.26974174 Lattice="15.00000000 0.00000000 0.00000000 0.00000000 15.00000000 0.00000000 0.00000000 0.00000000 15.00000000" energy_frozen_part=0.00000000 Properties=species:S:1:pos:R:3:velocities:R:3:Z:I:1
H        10.06978856       4.87241271       4.43672561         0.00000000       0.00000000       0.00000000          1
H         8.63464127       6.98386294       3.30252239         0.00000000       0.00000000       0.00000000          1
H         9.74082987       8.74013682       5.17231604         0.00000000       0.00000000       0.00000000          1
H        11.40880464       7.16792175       3.57535791         0.00000000       0.00000000       0.00000000          1
H         8.40180958       6.44463460       6.03369056         0.00000000       0.00000000       0.00000000          1
H        11.17596943       6.62868287       6.30653099         0.00000000       0.00000000       0.00000000          1
6
pbc=[F, F, F] list_num_par=6 frozen=false iter=20000 energy=-1.26974174 Lattice="15.00000000 0.00000000 0.00000000 0.00000000 15.00000000 0.00000000 0.00000000 0.00000000 15.00000000" energy_frozen_part=0.00000000 Properties=species:S:1:pos:R:3:velocities:R:3:Z:I:1
H        10.04295347       4.75695478       4.61295306         0.00000000       0.00000000       0.00000000          1
H         8.53062979       6.67939209       3.26335113         0.00000000       0.00000000       0.00000000          1
H         9.55263106       8.66318588       4.94393644         0.00000000       0.00000000       0.00000000          1
H        11.29323008       7.00426165       3.52176014         0.00000000       0.00000000       0.00000000          1
H         8.30235164       6.41587091       6.03512911         0.00000000       0.00000000       0.00000000          1
H        11.06495508       6.74074701       6.29353344         0.00000000       0.00000000       0.00000000          1
6
pbc=[F, F, F] list_num_par=6 frozen=false iter=20000 energy=-1.26974174 Lattice="15.00000000 0.00000000 0.00000000 0.00000000 15.00000000 0.00000000 0.00000000 0.00000000 15.00000000" energy_frozen_part=0.00000000 Properties=species:S:1:pos:R:3:velocities:R:3:Z:I:1
H        10.06968867       4.87249343       4.43673966         0.00000000       0.00000000       0.00000000          1
H         8.63467445       6.98395766       3.30239033         0.00000000       0.00000000       0.00000000          1
H         9.74080018       8.74024043       5.17222068         0.00000000       0.00000000       0.00000000          1
H        11.40882711       7.16794096       3.57539275         0.00000000       0.00000000       0.00000000          1
H         8.40165844       6.44479360       6.03356289         0.00000000       0.00000000       0.00000000          1
H        11.17581014       6.62876880       6.30655960         0.00000000       0.00000000       0.00000000          1
6
pbc=[F, F, F] list_num_par=6 frozen=false iter=20000 energy=-1.26974174 Lattice="15.00000000 0.00000000 0.00000000 0.00000000 15.00000000 0.00000000 0.00000000 0.00000000 15.00000000" energy_frozen_part=0.00000000 Properties=species:S:1:pos:R:3:velocities:R:3:Z:I:1
H        10.06848985       4.87199665       4.43659765         0.00000000       0.00000000       0.00000000          1
H         8.63366413       6.98500131       3.30487996         0.00000000       0.00000000       0.00000000          1