6
pbc=[F, F, F] list_num_par=6 frozen=false iter=9 energy=7.42416848 Lattice="15.00000000 0.00000000 0.00000000 0.00000000 15.00000000 0.00000000 0.00000000 0.00000000 15.00000000" energy_frozen_part=0.00000000 Properties=species:S:1:pos:R:3:velocities:R:3:Z:I:1
H         9.87143312      14.53365361      12.48254540         0.00000000       0.00000000       0.00000000          1
H         7.67007655      14.59214983       5.52979668         0.00000000       0.00000000       0.00000000          1
H        14.07526981       4.50650231      11.29415036         0.00000000       0.00000000       0.00000000          1
H         5.17489135       0.54741407       8.62385820         0.00000000       0.00000000       0.00000000          1
H         3.44244623       1.35558361       8.82626034         0.00000000       0.00000000       0.00000000          1
H         7.90557605       7.29460755      13.46424455         0.00000000       0.00000000       0.00000000          1
6
pbc=[F, F, F] list_num_par=6 frozen=false iter=19 energy=0.23470376 Lattice="15.00000000 0.00000000 0.00000000 0.00000000 15.00000000 0.00000000 0.00000000 0.00000000 15.00000000" energy_frozen_part=0.00000000 Properties=species:S:1:pos:R:3:velocities:R:3:Z:I:1
H        10.73070726      13.95918852       4.41694303         0.00000000       0.00000000       0.00000000          1
H         3.65911190       0.05468773      13.92611601         0.00000000       0.00000000       0.00000000          1
H         3.89002159      14.10409488      12.53990106         0.00000000       0.00000000       0.00000000          1
H         0.99998317      10.88775248       8.55212562         0.00000000       0.00000000       0.00000000          1
H         5.45112977       0.01664160      12.39316055         0.00000000       0.00000000       0.00000000          1
H         6.60998388       6.38289774       5.38175601         0.00000000       0.00000000       0.00000000          1
6
pbc=[F, F, F] list_num_par=6 frozen=false iter=29 energy=-0.00292742 Lattice="15.00000000 0.00000000 0.00000000 0.00000000 15.00000000 0.00000000 0.00000000 0.00000000 15.00000000" energy_frozen_part=0.00000000 Properties=species:S:1:pos:R:3:velocities:R:3:Z:I:1
H        10.44401662       6.07790185       0.86387194         0.00000000       0.00000000       0.00000000          1
H         4.00762164       5.14980665       9.51020884         0.00000000       0.00000000       0.00000000          1
H         2.37817395      13.83053118       3.46431173         0.00000000       0.00000000       0.00000000          1
H        14.63704005       7.97008190       6.38805274         0.00000000       0.00000000       0.00000000          1
H         1.82578279       9.41585260      14.73304710         0.00000000       0.00000000       0.00000000          1
H         8.55993246      14.37526980       2.51472234         0.00000000       0.00000000       0.00000000          1
6
pbc=[F, F, F] list_num_par=6 frozen=false iter=39 energy=-0.00754536 Lattice="15.00000000 0.00000000 0.00000000 0.00000000 15.00000000 0.00000000 0.00000000 0.00000000 15.00000000" energy_frozen_part=0.00000000 Properties=species:S:1:pos:R:3:velocities:R:3:Z:I:1
H        11.81059159       1.21586863      14.68893446         0.00000000       0.00000000       0.00000000          1
H        13.42617798      10.18260761       5.65321253         0.00000000       0.00000000       0.00000000          1
H         5.30845825      14.31502890       8.36590269         0.00000000       0.00000000       0.00000000          1
H        11.39979996      13.70831605      11.37560944         0.00000000       0.00000000       0.00000000          1
H        11.47607012       5.67944014       4.42514115         0.00000000       0.00000000       0.00000000          1
H         0.47883011       9.93796354      12.97519854         0.00000000       0.00000000       0.00000000          1
6
pbc=[F, F, F] list_num_par=6 frozen=false iter=49 energy=-0.01075367 Lattice="15.00000000 0.00000000 0.00000000 0.00000000 15.00000000 0.00000000 0.00000000 0.00000000 15.00000000" energy_frozen_part=0.00000000 Properties=species:S:1:pos:R:3:velocities:R:3:Z:I:1
H         1.57063839      11.70087789      12.42499366         0.00000000       0.00000000       0.00000000          1
H         2.40658766       9.50176835       7.94241588         0.00000000       0.00000000       0.00000000          1
H         1.40652478       3.29418412       0.51765575         0.00000000       0.00000000       0.00000000          1
H        11.89170693       0.60817396      10.97827424         0.00000000       0.00000000       0.00000000          1
H         4.03698541      14.95365926       8.26346990         0.00000000       0.00000000       0.00000000          1
H        13.71886281      14.53628602       6.56736582         0.00000000       0.00000000       0.00000000          1
6
pbc=[F, F, F] list_num_par=6 frozen=false iter=59 energy=-0.01200758 Lattice="15.00000000 0.00000000 0.00000000 0.00000000 15.00000000 0.00000000 0.00000000 0.00000000 15.00000000" energy_frozen_part=0.00000000 Properties=species:S:1:pos:R:3:velocities:R:3:Z:I:1
H         3.97999142      13.17016103      13.62229694         0.00000000       0.00000000       0.00000000          1
H         2.95942817       9.07260595      11.30730991         0.00000000       0.00000000       0.00000000          1
H         2.68380698      12.85378634       5.41886880         0.00000000       0.00000000       0.00000000          1
H         7.70886863       5.03621402      13.45184797         0.00000000       0.00000000       0.00000000          1
H        14.52330545      13.15187707      14.59221256         0.00000000       0.00000000       0.00000000          1
H        11.89947957       9.68013620      10.09811725         0.00000000       0.00000000       0.00000000          1
6
pbc=[F, F, F] list_num_par=6 frozen=false iter=69 energy=-0.01635424 Lattice="15.00000000 0.00000000 0.00000000 0.00000000 15.00000000 0.00000000 0.00000000 0.00000000 15.00000000" energy_frozen_part=0.00000000 Properties=species:S:1:pos:R:3:velocities:R:3:Z:I:1
H         1.83766875      11.63810103      12.50075590         0.00000000       0.00000000       0.00000000          1
H         2.20824212       9.82139849       7.90689648         0.00000000       0.00000000       0.00000000          1
H         1.55626831       3.13362374       0.48952194         0.00000000       0.00000000       0.00000000          1
H        11.75234968       0.69048161      11.13260001         0.00000000       0.00000000       0.00000000          1
H         3.74647125      14.59468051       8.54538126         0.00000000       0.00000000       0.00000000          1
H        13.70066346      14.51859261       6.51798015         0.00000000       0.00000000       0.00000000          1
6
pbc=[F, F, F] list_num_par=6 frozen=false iter=79 energy=-0.01962279 Lattice="15.00000000 0.00000000 0.00000000 0.00000000 15.00000000 0.00000000 0.00000000 0.00000000 15.00000000" energy_frozen_part=0.00000000 Properties=species:S:1:pos:R:3:velocities:R:3:Z:I:1
H         8.44244025      10.87771153      11.57894057         0.00000000       0.00000000       0.00000000          1
H         3.17365192      11.35882744       0.86214431         0.00000000       0.00000000       0.00000000          1
H         7.83650572      13.24760697       5.81638896         0.00000000       0.00000000       0.00000000          1
H         3.99185346      10.44466547       6.58552030         0.00000000       0.00000000       0.00000000          1
H         3.95447087       6.47309718      10.12689026         0.00000000       0.00000000       0.00000000          1
H         0.08046747       2.11058793       6.91263560         0.00000000       0.00000000       0.00000000          1
6
pbc=[F, F, F] list_num_par=6 frozen=false iter=89 energy=-0.02571897 Lattice="15.00000000 0.00000000 0.00000000 0.00000000 15.00000000 0.00000000 0.00000000 0.00000000 15.00000000" energy_frozen_part=0.00000000 Properties=species:S:1:pos:R:3:velocities:R:3:Z:I:1
H        11.66038816       4.00569865      10.04104762         0.00000000       0.00000000       0.00000000          1
H         9.53724837      11.83712360      14.40512965         0.00000000       0.00000000       0.00000000          1
H         5.79718745       3.26909338       8.52992849         0.00000000       0.00000000       0.00000000          1
H        10.08125521       8.49422006       5.36192621         0.00000000       0.00000000       0.00000000          1
H         5.50095271       4.46787653      10.65005975         0.00000000       0.00000000       0.00000000          1
H         8.21404023       5.53950797      12.35936919         0.00000000       0.00000000       0.00000000          1
6
pbc=[F, F, F] list_num_par=6 frozen=false iter=99 energy=-0.02932105 Lattice="15.00000000 0.00000000 0.00000000 0.00000000 15.00000000 0.00000000 0.00000000 0.00000000 15.00000000" energy_frozen_part=0.00000000 Properties=species:S:1:pos:R:3:velocities:R:3:Z:I:1
H        12.94194343      12.99267096      14.75381355         0.00000000       0.00000000       0.00000000          1
H         9.86298735       4.08604948       8.89384702         0.00000000       0.00000000       0.00000000          1
H        11.55047069       2.78529868       2.66358462         0.00000000       0.00000000       0.00000000          1
H        14.07565552       2.42279032       6.13659689         0.00000000       0.00000000       0.00000000          1
H        14.44702839      10.56394821       2.10560157         0.00000000       0.00000000       0.00000000          1
H        10.12550062       9.24030668      14.87881145         0.00000000       0.00000000       0.00000000          1
6
pbc=[F, F, F] list_num_par=6 frozen=false iter=109 energy=-0.03235408 Lattice="15.00000000 0.00000000 0.00000000 0.00000000 15.00000000 0.00000000 0.00000000 0.00000000 15.00000000" energy_frozen_part=0.00000000 Properties=species:S:1:pos:R:3:velocities:R:3:Z:I:1
H        13.97809964       6.25396153       3.32504134         0.00000000       0.00000000       0.00000000          1
H         9.31924267       8.61517477       9.77460989         0.00000000       0.00000000       0.00000000          1
H         6.88922801       2.72695746       3.99996269         0.00000000       0.00000000       0.00000000          1
H        10.99650792      14.28828477       4.78285513         0.00000000       0.00000000       0.00000000          1
H        13.25447560      14.59661068       7.93248691         0.00000000       0.00000000       0.00000000          1
H         2.40902205       2.15416272       1.32517755         0.00000000       0.00000000       0.00000000          1
6
pbc=[F, F, F] list_num_par=6 frozen=false iter=119 energy=-0.03433016 Lattice="15.00000000 0.00000000 0.00000000 0.00000000 15.00000000 0.00000000 0.00000000 0.00000000 15.00000000" energy_frozen_part=0.00000000 Properties=species:S:1:pos:R:3:velocities:R:3:Z:I:1
H         2.72416631       7.90609327      10.08777607         0.00000000       0.00000000       0.00000000          1
H         2.41583309       8.82966736       2.04715823         0.00000000       0.00000000       0.00000000          1
H         9.36790176      11.60842008       2.71706983         0.00000000       0.00000000       0.00000000          1
H         3.34699426       3.64040040       4.99384850         0.00000000       0.00000000       0.00000000          1
H        14.64142761      13.60197115       5.77421730         0.00000000       0.00000000       0.00000000          1
H         3.68701198       4.46078899       1.02064427         0.00000000       0.00000000       0.00000000          1
6
pbc=[F, F, F] list_num_par=6 frozen=false iter=129 energy=-0.04075100 Lattice="15.00000000 0.00000000 0.00000000 0.00000000 15.00000000 0.00000000 0.00000000 0.00000000 15.00000000" energy_frozen_part=0.00000000 Properties=species:S:1:pos:R:3:velocities:R:3:Z:I:1
H         5.08860025       0.53960577       0.17765006         0.00000000       0.00000000       0.00000000          1
H        12.73605170       6.44744057      13.99836636         0.00000000       0.00000000       0.00000000          1
H         2.81720610       9.45325519       3.37627725         0.00000000       0.00000000       0.00000000          1
H        14.20417638       5.96078822      10.29475074         0.00000000       0.00000000       0.00000000          1
H        12.38535140      10.07526482       6.68082970         0.00000000       0.00000000       0.00000000          1
H        10.14552896      12.59840312       9.28594677         0.00000000       0.00000000       0.00000000          1
6
pbc=[F, F, F] list_num_par=6 frozen=false iter=139 energy=-0.04524737 Lattice="15.00000000 0.00000000 0.00000000 0.00000000 15.00000000 0.00000000 0.00000000 0.00000000 15.00000000" energy_frozen_part=0.00000000 Properties=species:S:1:pos:R:3:velocities:R:3:Z:I:1
H         6.92041154       9.62212538       1.96319618         0.00000000       0.00000000       0.00000000          1
H         8.79348943      12.27540324       0.60116101         0.00000000       0.00000000       0.00000000          1
H         0.51133466      13.12092202      14.36273466         0.00000000       0.00000000       0.00000000          1
H         9.71335217       3.07247255       3.95565439         0.00000000       0.00000000       0.00000000          1
H        13.06154325      10.89938690       8.44071911         0.00000000       0.00000000       0.00000000          1
H         1.76109622       3.69263775      12.15404092         0.00000000       0.00000000       0.00000000          1
6
pbc=[F, F, F] list_num_par=6 frozen=false iter=149 energy=-0.05075873 Lattice="15.00000000 0.00000000 0.00000000 0.00000000 15.00000000 0.00000000 0.00000000 0.00000000 15.00000000" energy_frozen_part=0.00000000 Properties=species:S:1:pos:R:3:velocities:R:3:Z:I:1
H        14.08515937       2.84691550      10.39906145         0.00000000       0.00000000       0.00000000          1
H        10.37550647      10.95417915      14.12456623         0.00000000       0.00000000       0.00000000          1
H         6.53884144       3.94967212       8.31928014         0.00000000       0.00000000       0.00000000          1
H        11.44233369       7.29040543       5.03638157         0.00000000       0.00000000       0.00000000          1
H         6.60058100       7.61584560      10.18873680         0.00000000       0.00000000       0.00000000          1
H         8.91495946       5.84632396      13.04522132         0.00000000       0.00000000       0.00000000          1
6
pbc=[F, F, F] list_num_par=6 frozen=false iter=159 energy=-0.05605580 Lattice="15.00000000 0.00000000 0.00000000 0.00000000 15.00000000 0.00000000 0.00000000 0.00000000 15.00000000" energy_frozen_part=0.00000000 Properties=species:S:1:pos:R:3:velocities:R:3:Z:I:1
H         9.66945979       4.34670003       3.42629083         0.00000000       0.00000000       0.00000000          1
H         3.20180283       5.94181327       8.78146261         0.00000000       0.00000000       0.00000000          1
H         2.10112433       1.61910719       5.57738399         0.00000000       0.00000000       0.00000000          1
H         0.08875394       6.95210516       0.01997696         0.00000000       0.00000000       0.00000000          1
H         2.58698426       5.81881549       5.09898162         0.00000000       0.00000000       0.00000000          1
H        14.95262476       7.93467955       6.63739464         0.00000000       0.00000000       0.00000000          1
6
pbc=[F, F, F] list_num_par=6 frozen=false iter=169 energy=-0.06243913 Lattice="15.00000000 0.00000000 0.00000000 0.00000000 15.00000000 0.00000000 0.00000000 0.00000000 15.00000000" energy_frozen_part=0.00000000 Properties=species:S:1:pos:R:3:velocities:R:3:Z:I:1
H        12.05598684      14.15589473       7.45819114         0.00000000       0.00000000       0.00000000          1
H         2.33089942       3.88100890      10.02564243         0.00000000       0.00000000       0.00000000          1
H         8.11775115       7.93374729       9.72009756         0.00000000       0.00000000       0.00000000          1
H        14.44765894       1.90776227       7.96627703         0.00000000       0.00000000       0.00000000          1
H         5.59492002       4.48310811      10.98123598         0.00000000       0.00000000       0.00000000          1
H         1.73584555       3.76647228       1.43876544         0.00000000       0.00000000       0.00000000          1
6
pbc=[F, F, F] list_num_par=6 frozen=false iter=179 energy=-0.06545245 Lattice="15.00000000 0.00000000 0.00000000 0.00000000 15.00000000 0.00000000 0.00000000 0.00000000 15.00000000" energy_frozen_part=0.00000000 Properties=species:S:1:pos:R:3:velocities:R:3:Z:I:1
H        10.52595580       4.99114206       7.00123648         0.00000000       0.00000000       0.00000000          1
H         6.77622471       3.12983687       3.86326727         0.00000000       0.00000000       0.00000000          1
H         3.81535220       0.65350401       1.30375182         0.00000000       0.00000000       0.00000000          1
H         4.72351343       4.33062023       9.94411660         0.00000000       0.00000000       0.00000000          1
H        11.09163039       0.34273370      14.42940952         0.00000000       0.00000000       0.00000000          1
H         1.40257824       5.04500784      10.61229359         0.00000000       0.00000000       0.00000000          1
6
pbc=[F, F, F] list_num_par=6 frozen=false iter=189 energy=-0.07213284 Lattice="15.00000000 0.00000000 0.00000000 0.00000000 15.00000000 0.00000000 0.00000000 0.00000000 15.00000000" energy_frozen_part=0.00000000 Properties=species:S:1:pos:R:3:velocities:R:3:Z:I:1
H        12.25894198      12.35845779       4.23466371         0.00000000       0.00000000       0.00000000          1
H         3.83132000      10.55420958      11.00354428         0.00000000       0.00000000       0.00000000          1
H        10.05206389       1.06506383       1.52243170         0.00000000       0.00000000       0.00000000          1
H        11.33471257       1.65541625      12.01207382         0.00000000       0.00000000       0.00000000          1
H        12.85139380       3.99550004      13.61255485         0.00000000       0.00000000       0.00000000          1
H         6.30623569       5.58739705       9.18238713         0.00000000       0.00000000       0.00000000          1
6
pbc=[F, F, F] list_num_par=6 frozen=false iter=199 energy=-0.07729141 Lattice="15.00000000 0.00000000 0.00000000 0.00000000 15.00000000 0.00000000 0.00000000 0.00000000 15.00000000" energy_frozen_part=0.00000000 Properties=species:S:1:pos:R:3:velocities:R:3:Z:I:1
H         9.08471140       4.60030690      11.09573160         0.00000000       0.00000000       0.00000000          1
H         6.00365481      12.65393728       8.70391168         0.00000000       0.00000000       0.00000000          1
H        12.69104048      11.96326128       3.81948044         0.00000000       0.00000000       0.00000000          1
H         7.31138479      11.94795641      13.78597688         0.00000000       0.00000000       0.00000000          1
H         9.86894746      10.18648605      12.93099651         0.00000000       0.00000000       0.00000000          1
H         8.33119316       1.89556917       4.27873072         0.00000000       0.00000000       0.00000000          1
6
pbc=[F, F, F] list_num_par=6 frozen=false iter=209 energy=-0.08053994 Lattice="15.00000000 0.00000000 0.00000000 0.00000000 15.00000000 0.00000000 0.00000000 0.00000000 15.00000000" energy_frozen_part=0.00000000 Properties=species:S:1:pos:R:3:velocities:R:3:Z:I:1
H         3.28214387       7.90858977       9.80156816         0.00000000       0.00000000       0.00000000          1
H         4.34931766      12.46848802      11.63589545         0.00000000       0.00000000       0.00000000          1
H         6.39695190      10.23949755       9.83302041         0.00000000       0.00000000       0.00000000          1
H        14.21603614       9.98127732       8.35456793         0.00000000       0.00000000       0.00000000          1
H        11.05137417       4.21197308       4.73674877         0.00000000       0.00000000       0.00000000          1
H         9.96696876       7.79199813       0.66045209         0.00000000       0.00000000       0.00000000          1
6
pbc=[F, F, F] list_num_par=6 frozen=false iter=219 energy=-0.08399346 Lattice="15.00000000 0.00000000 0.00000000 0.00000000 15.00000000 0.00000000 0.00000000 0.00000000 15.00000000" energy_frozen_part=0.00000000 Properties=species:S:1:pos:R:3:velocities:R:3:Z:I:1
H        12.55185876       5.34535935       7.74994636         0.00000000       0.00000000       0.00000000          1
H         8.85566219      14.77176656       1.57177350         0.00000000       0.00000000       0.00000000          1
H         6.29968990      10.28097192      10.63924832         0.00000000       0.00000000       0.00000000          1
H        11.97160306       8.15908316       9.49146044         0.00000000       0.00000000       0.00000000          1
H         8.25813615       4.66222397       9.38891429         0.00000000       0.00000000       0.00000000          1
H        10.58721013       4.85162330      13.96526479         0.00000000       0.00000000       0.00000000          1
6
pbc=[F, F, F] list_num_par=6 frozen=false iter=229 energy=-0.08882533 Lattice="15.00000000 0.00000000 0.00000000 0.00000000 15.00000000 0.00000000 0.00000000 0.00000000 15.00000000" energy_frozen_part=0.00000000 Properties=species:S:1:pos:R:3:velocities:R:3:Z:I:1
H         9.77978015      12.80086992       2.02878654         0.00000000       0.00000000       0.00000000          1
H         3.80338939       4.22137903      12.44457666         0.00000000       0.00000000       0.00000000          1
H         8.26026459       7.70883054       4.19954193         0.00000000       0.00000000       0.00000000          1
H        11.05863981      11.81999005       4.87958289         0.00000000       0.00000000       0.00000000          1
H         4.01049867       8.14347644       2.85870162         0.00000000       0.00000000       0.00000000          1
H         7.30366814       2.34308898       4.05464394         0.00000000       0.00000000       0.00000000          1
6
pbc=[F, F, F] list_num_par=6 frozen=false iter=239 energy=-0.09266763 Lattice="15.00000000 0.00000000 0.00000000 0.00000000 15.00000000 0.00000000 0.00000000 0.00000000 15.00000000" energy_frozen_part=0.00000000 Properties=species:S:1:pos:R:3:velocities:R:3:Z:I:1
H         5.26096509       7.72146938       5.15734675         0.00000000       0.00000000       0.00000000          1
H         9.30411223      11.74357599       7.38964400         0.00000000       0.00000000       0.00000000          1
H         2.32956512       5.61877834       9.52592707         0.00000000       0.00000000       0.00000000          1
H         6.99786880       4.59703134      13.92193893         0.00000000       0.00000000       0.00000000          1
H         9.31557701       2.04382308      10.74168580         0.00000000       0.00000000       0.00000000          1
H         1.79501258       8.38382501      10.91363647         0.00000000       0.00000000       0.00000000          1
6
pbc=[F, F, F] list_num_par=6 frozen=false iter=249 energy=-0.09661834 Lattice="15.00000000 0.00000000 0.00000000 0.00000000 15.00000000 0.00000000 0.00000000 0.00000000 15.00000000" energy_frozen_part=0.00000000 Properties=species:S:1:pos:R:3:velocities:R:3:Z:I:1
H        10.43405947      12.93584736       2.72527276         0.00000000       0.00000000       0.00000000          1
H         3.13913858      10.76138866       1.84304867         0.00000000       0.00000000       0.00000000          1
H         9.93033609       8.28100555      10.71207284         0.00000000       0.00000000       0.00000000          1
H         2.62762147       4.88546383       9.63655376         0.00000000       0.00000000       0.00000000          1
H         7.98615800      12.66253111      12.14139349         0.00000000       0.00000000       0.00000000          1
H         2.67062711       4.75746166      12.62649595         0.00000000       0.00000000       0.00000000          1
6
pbc=[F, F, F] list_num_par=6 frozen=false iter=259 energy=-0.09953012 Lattice="15.00000000 0.00000000 0.00000000 0.00000000 15.00000000 0.00000000 0.00000000 0.00000000 15.00000000" energy_frozen_part=0.00000000 Properties=species:S:1:pos:R:3:velocities:R:3:Z:I:1
H        14.03749334      10.56216904      11.43058756         0.00000000       0.00000000       0.00000000          1
H         6.53197997      14.64618188       9.99367420         0.00000000       0.00000000       0.00000000          1
H         6.84542924       1.16458266       0.77263303         0.00000000       0.00000000       0.00000000          1
H        14.51916466       8.78806887      13.99908017         0.00000000       0.00000000       0.00000000          1
H        12.22925425       7.50509830       5.35126306         0.00000000       0.00000000       0.00000000          1
H         3.24227706      12.96662185      11.34787197         0.00000000       0.00000000       0.00000000          1
6
pbc=[F, F, F] list_num_par=6 frozen=false iter=269 energy=-0.10160364 Lattice="15.00000000 0.00000000 0.00000000 0.00000000 15.00000000 0.00000000 0.00000000 0.00000000 15.00000000" energy_frozen_part=0.00000000 Properties=species:S:1:pos:R:3:velocities:R:3:Z:I:1
H         3.22848276       6.73721154       1.22826296         0.00000000       0.00000000       0.00000000          1
H         7.93294091      10.36237840       6.03603107         0.00000000       0.00000000       0.00000000          1
H         9.23978200       3.36337344       4.32007424         0.00000000       0.00000000       0.00000000          1
H         7.74789899       5.84181707       3.22755671         0.00000000       0.00000000       0.00000000          1
H        13.54909338       4.02120422      12.88249665         0.00000000       0.00000000       0.00000000          1
H         3.02009554      10.95516010       4.39019181         0.00000000       0.00000000       0.00000000          1
6
pbc=[F, F, F] list_num_par=6 frozen=false iter=279 energy=-0.10519620 Lattice="15.00000000 0.00000000 0.00000000 0.00000000 15.00000000 0.00000000 0.00000000 0.00000000 15.00000000" energy_frozen_part=0.00000000 Properties=species:S:1:pos:R:3:velocities:R:3:Z:I:1
H         9.39238280       5.70683716       3.73356105         0.00000000       0.00000000       0.00000000          1
H         9.58214878       3.24191517       1.71721951         0.00000000       0.00000000       0.00000000          1
H         6.67005282       7.96205580      14.42696050         0.00000000       0.00000000       0.00000000          1
H         2.97909247      14.63793507       4.45102680         0.00000000       0.00000000       0.00000000          1
H         3.65952180       5.77464864      14.38996155         0.00000000       0.00000000       0.00000000          1
H         6.94293644       0.50307091      10.44004707         0.00000000       0.00000000       0.00000000          1
6
pbc=[F, F, F] list_num_par=6 frozen=false iter=289 energy=-0.10691368 Lattice="15.00000000 0.00000000 0.00000000 0.00000000 15.00000000 0.00000000 0.00000000 0.00000000 15.00000000" energy_frozen_part=0.00000000 Properties=species:S:1:pos:R:3:velocities:R:3:Z:I:1
H         1.76921906       5.33483760       4.85317397         0.00000000       0.00000000       0.00000000          1
H        10.76664910       8.99575673      10.58233392         0.00000000       0.00000000       0.00000000          1
H         8.65224674       3.95808289       5.75328589         0.00000000       0.00000000       0.00000000          1
H         6.27166801       3.12293809       4.76449291         0.00000000       0.00000000       0.00000000          1
H        14.83533710       1.10694124      13.61647419         0.00000000       0.00000000       0.00000000          1
H         1.53741000      10.24303998       3.31427889         0.00000000       0.00000000       0.00000000          1
6
pbc=[F, F, F] list_num_par=6 frozen=false iter=299 energy=-0.10919622 Lattice="15.00000000 0.00000000 0.00000000 0.00000000 15.00000000 0.00000000 0.00000000 0.00000000 15.00000000" energy_frozen_part=0.00000000 Properties=species:S:1:pos:R:3:velocities:R:3:Z:I:1
H         9.79928582       3.53563967       0.63129257         0.00000000       0.00000000       0.00000000          1
H        12.27328327       1.36135942       6.20092877         0.00000000       0.00000000       0.00000000          1
H        12.17812374       3.92106128       2.96625829         0.00000000       0.00000000       0.00000000          1
H         4.93146782       7.67794336       8.45830258         0.00000000       0.00000000       0.00000000          1
H         4.96912705       4.13848006       7.21786436         0.00000000       0.00000000       0.00000000          1
H        14.29912337      13.82858007       0.93452256         0.00000000       0.00000000       0.00000000          1
6
pbc=[F, F, F] list_num_par=6 frozen=false iter=309 energy=-0.11352274 Lattice="15.00000000 0.00000000 0.00000000 0.00000000 15.00000000 0.00000000 0.00000000 0.00000000 15.00000000" energy_frozen_part=0.00000000 Properties=species:S:1:pos:R:3:velocities:R:3:Z:I:1
H         8.95939132       9.53518138       9.78614414         0.00000000       0.00000000       0.00000000          1
H         2.03485103      10.26767698      12.06255466         0.00000000       0.00000000       0.00000000          1