6
pbc=[F, F, F] list_num_par=6 energy=-1.26974174 iter=20000 frozen=false Lattice="15.00000000 0.00000000 0.00000000 0.00000000 15.00000000 0.00000000 0.00000000 0.00000000 15.00000000" energy_frozen_part=0.00000000 Properties=species:S:1:pos:R:3:velocities:R:3:Z:I:1
H        11.74293327      11.61861649      11.38088606         0.00000000       0.00000000       0.00000000          1
H         9.01552120      11.32848352      10.85048667         0.00000000       0.00000000       0.00000000          1
H         9.43773326      12.16855567       8.21984532         0.00000000       0.00000000       0.00000000          1
H        12.16515301      12.45868708       8.75024115         0.00000000       0.00000000       0.00000000          1
H        10.28436652      13.76633701      10.34929900         0.00000000       0.00000000       0.00000000          1
H        10.89630831      10.02083519       9.25142704         0.00000000       0.00000000       0.00000000          1
6
pbc=[F, F, F] list_num_par=6 energy=-1.26974174 iter=20000 frozen=false Lattice="15.00000000 0.00000000 0.00000000 0.00000000 15.00000000 0.00000000 0.00000000 0.00000000 15.00000000" energy_frozen_part=0.00000000 Properties=species:S:1:pos:R:3:velocities:R:3:Z:I:1
H        11.74752738      11.61904788      11.37523007         0.00000000       0.00000000       0.00000000          1
H         9.01930829      11.32612237      10.85056733         0.00000000       0.00000000       0.00000000          1
H         9.43495804      12.16766863       8.21934881         0.00000000       0.00000000       0.00000000          1
H        12.16318038      12.46060306       8.74401132         0.00000000       0.00000000       0.00000000          1
H        10.28439650      13.76556457      10.34760281         0.00000000       0.00000000       0.00000000          1
H        10.89809496      10.02116154       9.24697038         0.00000000       0.00000000       0.00000000          1
6
pbc=[F, F, F] list_num_par=6 energy=-1.26974174 iter=20000 frozen=false Lattice="15.00000000 0.00000000 0.00000000 0.00000000 15.00000000 0.00000000 0.00000000 0.00000000 15.00000000" energy_frozen_part=0.00000000 Properties=species:S:1:pos:R:3:velocities:R:3:Z:I:1
H        11.71630069      11.59305859      11.37985623         0.00000000       0.00000000       0.00000000          1
H         8.99378276      11.27786701      10.83871206         0.00000000       0.00000000       0.00000000          1
H         9.41840038      12.12312759       8.21011990         0.00000000       0.00000000       0.00000000          1
H        12.14092213      12.43832433       8.75126022         0.00000000       0.00000000       0.00000000          1
H        10.24186845      13.72765051      10.34359149         0.00000000       0.00000000       0.00000000          1
H        10.89284090       9.98853818       9.24638741         0.00000000       0.00000000       0.00000000          1
6
pbc=[F, F, F] list_num_par=6 energy=-1.26974174 iter=20000 frozen=false Lattice="15.00000000 0.00000000 0.00000000 0.00000000 15.00000000 0.00000000 0.00000000 0.00000000 15.00000000" energy_frozen_part=0.00000000 Properties=species:S:1:pos:R:3:velocities:R:3:Z:I:1
H        12.00819655      11.24128228      11.36625473         0.00000000       0.00000000       0.00000000          1
H         9.23247214      11.05013251      11.11503662         0.00000000       0.00000000       0.00000000          1
H         9.37122281      12.30826402       8.62462546         0.00000000       0.00000000       0.00000000          1
H        12.14694482      12.49941472       8.87583834         0.00000000       0.00000000       0.00000000          1
H        10.48921609      13.53330407      10.87265739         0.00000000       0.00000000       0.00000000          1
H        10.89020011      10.01624653       9.11821786         0.00000000       0.00000000       0.00000000          1
6
pbc=[F, F, F] list_num_par=6 energy=-1.26974174 iter=20000 frozen=false Lattice="15.00000000 0.00000000 0.00000000 0.00000000 15.00000000 0.00000000 0.00000000 0.00000000 15.00000000" energy_frozen_part=0.00000000 Properties=species:S:1:pos:R:3:velocities:R:3:Z:I:1
H        11.74752052      11.61907413      11.37522508         0.00000000       0.00000000       0.00000000          1
H         9.01930760      11.32609352      10.85053418         0.00000000       0.00000000       0.00000000          1
H         9.43496159      12.16771208       8.21933810         0.00000000       0.00000000       0.00000000          1
H        12.16317400      12.46068691       8.74403202         0.00000000       0.00000000       0.00000000          1
H        10.28434676      13.76557694      10.34764150         0.00000000       0.00000000       0.00000000          1
H        10.89813807      10.02120465       9.24692567         0.00000000       0.00000000       0.00000000          1
6
pbc=[F, F, F] list_num_par=6 energy=-1.26974174 iter=20000 frozen=false Lattice="15.00000000 0.00000000 0.00000000 0.00000000 15.00000000 0.00000000 0.00000000 0.00000000 15.00000000" energy_frozen_part=0.00000000 Properties=species:S:1:pos:R:3:velocities:R:3:Z:I:1
H        11.71677787      11.59165963      11.37976506         0.00000000       0.00000000       0.00000000          1
H         8.99426132      11.27836681      10.83748843         0.00000000       0.00000000       0.00000000          1
H         9.42005199      12.12626345       8.20993243         0.00000000       0.00000000       0.00000000          1
H        12.14256427      12.43955141       8.75220885         0.00000000       0.00000000       0.00000000          1
H        10.24367312      13.72807879      10.34537550         0.00000000       0.00000000       0.00000000          1
H        10.89315263       9.98984096       9.24431689         0.00000000       0.00000000       0.00000000          1
6
pbc=[F, F, F] list_num_par=6 energy=-1.26974174 iter=20000 frozen=false Lattice="15.00000000 0.00000000 0.00000000 0.00000000 15.00000000 0.00000000 0.00000000 0.00000000 15.00000000" energy_frozen_part=0.00000000 Properties=species:S:1:pos:R:3:velocities:R:3:Z:I:1
H        11.71631221      11.59306280      11.37986457         0.00000000       0.00000000       0.00000000          1
H         8.99379883      11.27786141      10.83871894         0.00000000       0.00000000       0.00000000          1
H         9.41840603      12.12313005       8.21012303         0.00000000       0.00000000       0.00000000          1
H        12.14092710      12.43832877       8.75126618         0.00000000       0.00000000       0.00000000          1
H        10.24187011      13.72764464      10.34359987         0.00000000       0.00000000       0.00000000          1
H        10.89285163       9.98854236       9.24638856         0.00000000       0.00000000       0.00000000          1
6
pbc=[F, F, F] list_num_par=6 energy=-1.26974174 iter=20000 frozen=false Lattice="15.00000000 0.00000000 0.00000000 0.00000000 15.00000000 0.00000000 0.00000000 0.00000000 15.00000000" energy_frozen_part=0.00000000 Properties=species:S:1:pos:R:3:velocities:R:3:Z:I:1
H        11.74292784      11.61861385      11.38089507         0.00000000       0.00000000       0.00000000          1
H         9.01551869      11.32847314      10.85048685         0.00000000       0.00000000       0.00000000          1
H         9.43773520      12.16855960       8.21984358         0.00000000       0.00000000       0.00000000          1
H        12.16514247      12.45869834       8.75025630         0.00000000       0.00000000       0.00000000          1
H        10.28435626      13.76633524      10.34931365         0.00000000       0.00000000       0.00000000          1
H        10.89630500      10.02084047       9.25142446         0.00000000       0.00000000       0.00000000          1
6
pbc=[F, F, F] list_num_par=6 energy=-1.26974174 iter=20000 frozen=false Lattice="15.00000000 0.00000000 0.00000000 0.00000000 15.00000000 0.00000000 0.00000000 0.00000000 15.00000000" energy_frozen_part=0.00000000 Properties=species:S:1:pos:R:3:velocities:R:3:Z:I:1
H        11.71631460      11.59306824      11.37985791         0.00000000       0.00000000       0.00000000          1
H         8.99379412      11.27786691      10.83871851         0.00000000       0.00000000       0.00000000          1
H         9.41840282      12.12313237       8.21012810         0.00000000       0.00000000       0.00000000          1
H        12.14092113      12.43832948       8.75125726         0.00000000       0.00000000       0.00000000          1
H        10.24186843      13.72765191      10.34360143         0.00000000       0.00000000       0.00000000          1
H        10.89285032       9.98854557       9.24638623         0.00000000       0.00000000       0.00000000          1
6
pbc=[F, F, F] list_num_par=6 energy=-1.26974174 iter=20000 frozen=false Lattice="15.00000000 0.00000000 0.00000000 0.00000000 15.00000000 0.00000000 0.00000000 0.00000000 15.00000000" energy_frozen_part=0.00000000 Properties=species:S:1:pos:R:3:velocities:R:3:Z:I:1
H        11.71636684      11.59305376      11.37984239         0.00000000       0.00000000       0.00000000          1
H         8.99383441      11.27787987      10.83874477         0.00000000       0.00000000       0.00000000          1
H         9.41841457      12.12315652       8.21015148         0.00000000       0.00000000       0.00000000          1
H        12.14094412      12.43832942       8.75124649         0.00000000       0.00000000       0.00000000          1
H        10.24192767      13.72765708      10.34361495         0.00000000       0.00000000       0.00000000          1
H        10.89285552       9.98854972       9.24637261         0.00000000       0.00000000       0.00000000          1
6
pbc=[F, F, F] list_num_par=6 energy=-1.26974174 iter=20000 frozen=false Lattice="15.00000000 0.00000000 0.00000000 0.00000000 15.00000000 0.00000000 0.00000000 0.00000000 15.00000000" energy_frozen_part=0.00000000 Properties=species:S:1:pos:R:3:velocities:R:3:Z:I:1
H        12.00818625      11.24128079      11.36625517         0.00000000       0.00000000       0.00000000          1
H         9.23246391      11.05013510      11.11499509         0.00000000       0.00000000       0.00000000          1
H         9.37125867      12.30825555       8.62458414         0.00000000       0.00000000       0.00000000          1
H        12.14697432      12.49940448       8.87583898         0.00000000       0.00000000       0.00000000          1
H        10.48921702      13.53330272      10.87263204         0.00000000       0.00000000       0.00000000          1
H        10.89022704      10.01623889       9.11821119         0.00000000       0.00000000       0.00000000          1
6
pbc=[F, F, F] list_num_par=6 energy=-1.26974174 iter=20000 frozen=false Lattice="15.00000000 0.00000000 0.00000000 0.00000000 15.00000000 0.00000000 0.00000000 0.00000000 15.00000000" energy_frozen_part=0.00000000 Properties=species:S:1:pos:R:3:velocities:R:3:Z:I:1
H        11.74752728      11.61891291      11.37512417         0.00000000       0.00000000       0.00000000          1
H         9.01928496      11.32612587      10.85049210         0.00000000       0.00000000       0.00000000          1
H         9.43494199      12.16773573       8.21929480         0.00000000       0.00000000       0.00000000          1
H        12.16318641      12.46051602       8.74392352         0.00000000       0.00000000       0.00000000          1
H        10.28448516      13.76552299      10.34758197         0.00000000       0.00000000       0.00000000          1
H        10.89798425      10.02112107       9.24683473         0.00000000       0.00000000       0.00000000          1
6
pbc=[F, F, F] list_num_par=6 energy=-1.26974174 iter=20000 frozen=false Lattice="15.00000000 0.00000000 0.00000000 0.00000000 15.00000000 0.00000000 0.00000000 0.00000000 15.00000000" energy_frozen_part=0.00000000 Properties=species:S:1:pos:R:3:velocities:R:3:Z:I:1
H        12.00814285      11.24127297      11.36623768         0.00000000       0.00000000       0.00000000          1
H         9.23241652      11.05016508      11.11501385         0.00000000       0.00000000       0.00000000          1
H         9.37119531      12.30831537       8.62461122         0.00000000       0.00000000       0.00000000          1
H        12.14691809      12.49943106       8.87583822         0.00000000       0.00000000       0.00000000          1
H        10.48919420      13.53331974      10.87265788         0.00000000       0.00000000       0.00000000          1
H        10.89014235      10.01627235       9.11819089         0.00000000       0.00000000       0.00000000          1
6
pbc=[F, F, F] list_num_par=6 energy=-1.26974174 iter=20000 frozen=false Lattice="15.00000000 0.00000000 0.00000000 0.00000000 15.00000000 0.00000000 0.00000000 0.00000000 15.00000000" energy_frozen_part=0.00000000 Properties=species:S:1:pos:R:3:velocities:R:3:Z:I:1
H        11.74752559      11.61891162      11.37512518         0.00000000       0.00000000       0.00000000          1
H         9.01928309      11.32613822      10.85048576         0.00000000       0.00000000       0.00000000          1
H         9.43494605      12.16773566       8.21928924         0.00000000       0.00000000       0.00000000          1
H        12.16318940      12.46051105       8.74392756         0.00000000       0.00000000       0.00000000          1
H        10.28449423      13.76552927      10.34758034         0.00000000       0.00000000       0.00000000          1
H        10.89798200      10.02112315       9.24683568         0.00000000       0.00000000       0.00000000          1
6
pbc=[F, F, F] list_num_par=6 energy=-1.26974174 iter=20000 frozen=false Lattice="15.00000000 0.00000000 0.00000000 0.00000000 15.00000000 0.00000000 0.00000000 0.00000000 15.00000000" energy_frozen_part=0.00000000 Properties=species:S:1:pos:R:3:velocities:R:3:Z:I:1
H        11.71636703      11.59306501      11.37982998         0.00000000       0.00000000       0.00000000          1
H         8.99383414      11.27789744      10.83873436         0.00000000       0.00000000       0.00000000          1
H         9.41841175      12.12318284       8.21013845         0.00000000       0.00000000       0.00000000          1
H        12.14094277      12.43834112       8.75123816         0.00000000       0.00000000       0.00000000          1
H        10.24192336      13.72767225      10.34361103         0.00000000       0.00000000       0.00000000          1
H        10.89284592       9.98856634       9.24636081         0.00000000       0.00000000       0.00000000          1
6
pbc=[F, F, F] list_num_par=6 energy=-1.26974174 iter=20000 frozen=false Lattice="15.00000000 0.00000000 0.00000000 0.00000000 15.00000000 0.00000000 0.00000000 0.00000000 15.00000000" energy_frozen_part=0.00000000 Properties=species:S:1:pos:R:3:velocities:R:3:Z:I:1
H        11.74293673      11.61861660      11.38089211         0.00000000       0.00000000       0.00000000          1
H         9.01552370      11.32847784      10.85049231         0.00000000       0.00000000       0.00000000          1
H         9.43774056      12.16855478       8.21984952         0.00000000       0.00000000       0.00000000          1
H        12.16514718      12.45869824       8.75024588         0.00000000       0.00000000       0.00000000          1
H        10.28436031      13.76633489      10.34930822         0.00000000       0.00000000       0.00000000          1
H        10.89631343      10.02083635       9.25143074         0.00000000       0.00000000       0.00000000          1
6
pbc=[F, F, F] list_num_par=6 energy=-1.26974174 iter=20000 frozen=false Lattice="15.00000000 0.00000000 0.00000000 0.00000000 15.00000000 0.00000000 0.00000000 0.00000000 15.00000000" energy_frozen_part=0.00000000 Properties=species:S:1:pos:R:3:velocities:R:3:Z:I:1
H        11.74752937      11.61904757      11.37522738         0.00000000       0.00000000       0.00000000          1
H         9.01931207      11.32610455      10.85055690         0.00000000       0.00000000       0.00000000          1
H         9.43495365      12.16767456       8.21934348         0.00000000       0.00000000       0.00000000          1
H        12.16317856      12.46061458       8.74401218         0.00000000       0.00000000       0.00000000          1
H        10.28438552      13.76555923      10.34761211         0.00000000       0.00000000       0.00000000          1
H        10.89810071      10.02116620       9.24695469         0.00000000       0.00000000       0.00000000          1
6
pbc=[F, F, F] list_num_par=6 energy=-1.26974174 iter=20000 frozen=false Lattice="15.00000000 0.00000000 0.00000000 0.00000000 15.00000000 0.00000000 0.00000000 0.00000000 15.00000000" energy_frozen_part=0.00000000 Properties=species:S:1:pos:R:3:velocities:R:3:Z:I:1
H        11.71631349      11.59306617      11.37987243         0.00000000       0.00000000       0.00000000          1
H         8.99379403      11.27787647      10.83871493         0.00000000       0.00000000       0.00000000          1
H         9.41842442      12.12312376       8.21011809         0.00000000       0.00000000       0.00000000          1
H        12.14094162      12.43831015       8.75127429         0.00000000       0.00000000       0.00000000          1
H        10.24188465      13.72765171      10.34359175         0.00000000       0.00000000       0.00000000          1
H        10.89285542       9.98853297       9.24640715         0.00000000       0.00000000       0.00000000          1
6
pbc=[F, F, F] list_num_par=6 energy=-1.26974174 iter=20000 frozen=false Lattice="15.00000000 0.00000000 0.00000000 0.00000000 15.00000000 0.00000000 0.00000000 0.00000000 15.00000000" energy_frozen_part=0.00000000 Properties=species:S:1:pos:R:3:velocities:R:3:Z:I:1
H        11.71632879      11.59310909      11.37984338         0.00000000       0.00000000       0.00000000          1
H         8.99381456      11.27785090      10.83871605         0.00000000       0.00000000       0.00000000          1
H         9.41839971      12.12312930       8.21011742         0.00000000       0.00000000       0.00000000          1
H        12.14091085      12.43837922       8.75124870         0.00000000       0.00000000       0.00000000          1
H        10.24183864      13.72766648      10.34358407         0.00000000       0.00000000       0.00000000          1
H        10.89288660       9.98857053       9.24637619         0.00000000       0.00000000       0.00000000          1
6
pbc=[F, F, F] list_num_par=6 energy=-1.26974174 iter=20000 frozen=false Lattice="15.00000000 0.00000000 0.00000000 0.00000000 15.00000000 0.00000000 0.00000000 0.00000000 15.00000000" energy_frozen_part=0.00000000 Properties=species:S:1:pos:R:3:velocities:R:3:Z:I:1
H        11.71633065      11.59307179      11.37984926         0.00000000       0.00000000       0.00000000          1
H         8.99381222      11.27783912      10.83873659         0.00000000       0.00000000       0.00000000          1
H         9.41838197      12.12308127       8.21012725         0.00000000       0.00000000       0.00000000          1
H        12.14090250      12.43832070       8.75123774         0.00000000       0.00000000       0.00000000          1
H        10.24184884      13.72763320      10.34357743         0.00000000       0.00000000       0.00000000          1
H        10.89286365       9.98852067       9.24640105         0.00000000       0.00000000       0.00000000          1
6
pbc=[F, F, F] list_num_par=6 energy=-1.26974174 iter=20000 frozen=false Lattice="15.00000000 0.00000000 0.00000000 0.00000000 15.00000000 0.00000000 0.00000000 0.00000000 15.00000000" energy_frozen_part=0.00000000 Properties=species:S:1:pos:R:3:velocities:R:3:Z:I:1
H        11.71632375      11.59310005      11.37983288         0.00000000       0.00000000       0.00000000          1
H         8.99381187      11.27785867      10.83869963         0.00000000       0.00000000       0.00000000          1
H         9.41840123      12.12313781       8.21010574         0.00000000       0.00000000       0.00000000          1
H        12.14091540      12.43838048       8.75124372         0.00000000       0.00000000       0.00000000          1
H        10.24184651      13.72766751      10.34358079         0.00000000       0.00000000       0.00000000          1
H        10.89288103       9.98856759       9.24635714         0.00000000       0.00000000       0.00000000          1
6
pbc=[F, F, F] list_num_par=6 energy=-1.26974174 iter=20000 frozen=false Lattice="15.00000000 0.00000000 0.00000000 0.00000000 15.00000000 0.00000000 0.00000000 0.00000000 15.00000000" energy_frozen_part=0.00000000 Properties=species:S:1:pos:R:3:velocities:R:3:Z:I:1
H        12.00814260      11.24127151      11.36623642         0.00000000       0.00000000       0.00000000          1
H         9.23242177      11.05016287      11.11500629         0.00000000       0.00000000       0.00000000          1
H         9.37119707      12.30832043       8.62461202         0.00000000       0.00000000       0.00000000          1
H        12.14691733      12.49942499       8.87583574         0.00000000       0.00000000       0.00000000          1
H        10.48919595      13.53331671      10.87266433         0.00000000       0.00000000       0.00000000          1
H        10.89014179      10.01626992       9.11818249         0.00000000       0.00000000       0.00000000          1
6
pbc=[F, F, F] list_num_par=6 energy=-1.26974174 iter=20000 frozen=false Lattice="15.00000000 0.00000000 0.00000000 0.00000000 15.00000000 0.00000000 0.00000000 0.00000000 15.00000000" energy_frozen_part=0.00000000 Properties=species:S:1:pos:R:3:velocities:R:3:Z:I:1
H        11.71632734      11.59304749      11.37985995         0.00000000       0.00000000       0.00000000          1
H         8.99380179      11.27786620      10.83872984         0.00000000       0.00000000       0.00000000          1
H         9.41841104      12.12311418       8.21012482         0.00000000       0.00000000       0.00000000          1
H        12.14093221      12.43830106       8.75125979         0.00000000       0.00000000       0.00000000          1
H        10.24189062      13.72764009      10.34358882         0.00000000       0.00000000       0.00000000          1
H        10.89284879       9.98852329       9.24639801         0.00000000       0.00000000       0.00000000          1
6
pbc=[F, F, F] list_num_par=6 energy=-1.26974174 iter=20000 frozen=false Lattice="15.00000000 0.00000000 0.00000000 0.00000000 15.00000000 0.00000000 0.00000000 0.00000000 15.00000000" energy_frozen_part=0.00000000 Properties=species:S:1:pos:R:3:velocities:R:3:Z:I:1
H        12.00818034      11.24128747      11.36626902         0.00000000       0.00000000       0.00000000          1
H         9.23245708      11.05014284      11.11503936         0.00000000       0.00000000       0.00000000          1
H         9.37122622      12.30826455       8.62462632         0.00000000       0.00000000       0.00000000          1
H        12.14695045      12.49940908       8.87585400         0.00000000       0.00000000       0.00000000          1
H        10.48921193      13.53330997      10.87266422         0.00000000       0.00000000       0.00000000          1
H        10.89019780      10.01623977       9.11822948         0.00000000       0.00000000       0.00000000          1
6
pbc=[F, F, F] list_num_par=6 energy=-1.26974174 iter=20000 frozen=false Lattice="15.00000000 0.00000000 0.00000000 0.00000000 15.00000000 0.00000000 0.00000000 0.00000000 15.00000000" energy_frozen_part=0.00000000 Properties=species:S:1:pos:R:3:velocities:R:3:Z:I:1
H        11.74749951      11.61900344      11.37524455         0.00000000       0.00000000       0.00000000          1
H         9.01928217      11.32605476      10.85056750         0.00000000       0.00000000       0.00000000          1
H         9.43493845      12.16764889       8.21936135         0.00000000       0.00000000       0.00000000          1
H        12.16315822      12.46060620       8.74404171         0.00000000       0.00000000       0.00000000          1
H        10.28434966      13.76551556      10.34765217         0.00000000       0.00000000       0.00000000          1
H        10.89809732      10.02114249       9.24695429         0.00000000       0.00000000       0.00000000          1
6
pbc=[F, F, F] list_num_par=6 energy=-1.26974174 iter=20000 frozen=false Lattice="15.00000000 0.00000000 0.00000000 0.00000000 15.00000000 0.00000000 0.00000000 0.00000000 15.00000000" energy_frozen_part=0.00000000 Properties=species:S:1:pos:R:3:velocities:R:3:Z:I:1
H        11.71632498      11.59310647      11.37984373         0.00000000       0.00000000       0.00000000          1
H         8.99380975      11.27785911      10.83871540         0.00000000       0.00000000       0.00000000          1
H         9.41839863      12.12312639       8.21011317         0.00000000       0.00000000       0.00000000          1
H        12.14091712      12.43836978       8.75124801         0.00000000       0.00000000       0.00000000          1
H        10.24184665      13.72766477      10.34357887         0.00000000       0.00000000       0.00000000          1
H        10.89288031       9.98856822       9.24638028         0.00000000       0.00000000       0.00000000          1
6
pbc=[F, F, F] list_num_par=6 energy=-1.26974174 iter=20000 frozen=false Lattice="15.00000000 0.00000000 0.00000000 0.00000000 15.00000000 0.00000000 0.00000000 0.00000000 15.00000000" energy_frozen_part=0.00000000 Properties=species:S:1:pos:R:3:velocities:R:3:Z:I:1
H        11.71678694      11.59164913      11.37975213         0.00000000       0.00000000       0.00000000          1
H         8.99427266      11.27836478      10.83749851         0.00000000       0.00000000       0.00000000          1
H         9.42004376      12.12626514       8.20993574         0.00000000       0.00000000       0.00000000          1
H        12.14256463      12.43954509       8.75219126         0.00000000       0.00000000       0.00000000          1
H        10.24368193      13.72807543      10.34537109         0.00000000       0.00000000       0.00000000          1
H        10.89315139       9.98983828       9.24430611         0.00000000       0.00000000       0.00000000          1
6
pbc=[F, F, F] list_num_par=6 energy=-1.26974174 iter=20000 frozen=false Lattice="15.00000000 0.00000000 0.00000000 0.00000000 15.00000000 0.00000000 0.00000000 0.00000000 15.00000000" energy_frozen_part=0.00000000 Properties=species:S:1:pos:R:3:velocities:R:3:Z:I:1
H        12.00819805      11.24127052      11.36624011         0.00000000       0.00000000       0.00000000          1
H         9.23247725      11.05009183      11.11500291         0.00000000       0.00000000       0.00000000          1
H         9.37122644      12.30825271       8.62460468         0.00000000       0.00000000       0.00000000          1
H        12.14694728      12.49943583       8.87584461         0.00000000       0.00000000       0.00000000          1
H        10.48919120      13.53327621      10.87266753         0.00000000       0.00000000       0.00000000          1
H        10.89023145      10.01624914       9.11818439         0.00000000       0.00000000       0.00000000          1
6
pbc=[F, F, F] list_num_par=6 energy=-1.26974174 iter=20000 frozen=false Lattice="15.00000000 0.00000000 0.00000000 0.00000000 15.00000000 0.00000000 0.00000000 0.00000000 15.00000000" energy_frozen_part=0.00000000 Properties=species:S:1:pos:R:3:velocities:R:3:Z:I:1
H        11.71631088      11.59306407      11.37985660         0.00000000       0.00000000       0.00000000          1
H         8.99379330      11.27786919      10.83872063         0.00000000       0.00000000       0.00000000          1
H         9.41840729      12.12313298       8.21011751         0.00000000       0.00000000       0.00000000          1
H        12.14092213      12.43832433       8.75126022         0.00000000       0.00000000       0.00000000          1
H        10.24186652      13.72765377      10.34358902         0.00000000       0.00000000       0.00000000          1
H        10.89284130       9.98854235       9.24638522         0.00000000       0.00000000       0.00000000          1
6
pbc=[F, F, F] list_num_par=6 energy=-1.26974174 iter=20000 frozen=false Lattice="15.00000000 0.00000000 0.00000000 0.00000000 15.00000000 0.00000000 0.00000000 0.00000000 15.00000000" energy_frozen_part=0.00000000 Properties=species:S:1:pos:R:3:velocities:R:3:Z:I:1
H        11.74293475      11.61861526      11.38088986         0.00000000       0.00000000       0.00000000          1
H         9.01552115      11.32848673      10.85049585         0.00000000       0.00000000       0.00000000          1
H         9.43773507      12.16855028       8.21984376         0.00000000       0.00000000       0.00000000          1
H        12.16514689      12.45868778       8.75024255         0.00000000       0.00000000       0.00000000          1
H        10.28437096      13.76633458      10.34930284         0.00000000       0.00000000       0.00000000          1
H        10.89630469      10.02083637       9.25143498         0.00000000       0.00000000       0.00000000          1
6
pbc=[F, F, F] list_num_par=6 energy=-1.26974174 iter=20000 frozen=false Lattice="15.00000000 0.00000000 0.00000000 0.00000000 15.00000000 0.00000000 0.00000000 0.00000000 15.00000000" energy_frozen_part=0.00000000 Properties=species:S:1:pos:R:3:velocities:R:3:Z:I:1
H        11.71631088      11.59306669      11.37986372         0.00000000       0.00000000       0.00000000          1
H         8.99379549      11.27786328      10.83871446         0.00000000       0.00000000       0.00000000          1