6
pbc=[F, F, F] list_num_par=6 energy=-1.26974174 iter=20000 frozen=false Lattice="15.00000000 0.00000000 0.00000000 0.00000000 15.00000000 0.00000000 0.00000000 0.00000000 15.00000000" energy_frozen_part=0.00000000 Properties=species:S:1:pos:R:3:velocities:R:3:Z:I:1
H         4.65073422       6.40612915       2.20447986         0.00000000       0.00000000       0.00000000          1
H         5.12287021       8.55106838       0.47803524         0.00000000       0.00000000       0.00000000          1
H         3.94276898      10.29130806       2.31738614         0.00000000       0.00000000       0.00000000          1
H         6.05583068       8.64460618       3.10959083         0.00000000       0.00000000       0.00000000          1
H         3.47063622       8.14636969       4.04383236         0.00000000       0.00000000       0.00000000          1
H         2.53767284       8.05284502       1.41226862         0.00000000       0.00000000       0.00000000          1
6
pbc=[F, F, F] list_num_par=6 energy=-1.26974174 iter=20000 frozen=false Lattice="15.00000000 0.00000000 0.00000000 0.00000000 15.00000000 0.00000000 0.00000000 0.00000000 15.00000000" energy_frozen_part=0.00000000 Properties=species:S:1:pos:R:3:velocities:R:3:Z:I:1
H         4.65045625       6.40602662       2.20459104         0.00000000       0.00000000       0.00000000          1
H         5.12252264       8.55076883       0.47787182         0.00000000       0.00000000       0.00000000          1
H         3.94288018      10.29128318       2.31725163         0.00000000       0.00000000       0.00000000          1
H         6.05591299       8.64445122       3.10927593         0.00000000       0.00000000       0.00000000          1
H         3.47081583       8.14654486       4.04396584         0.00000000       0.00000000       0.00000000          1
H         2.53742268       8.05286868       1.41255915         0.00000000       0.00000000       0.00000000          1
6
pbc=[F, F, F] list_num_par=6 energy=-1.26974174 iter=20000 frozen=false Lattice="15.00000000 0.00000000 0.00000000 0.00000000 15.00000000 0.00000000 0.00000000 0.00000000 15.00000000" energy_frozen_part=0.00000000 Properties=species:S:1:pos:R:3:velocities:R:3:Z:I:1
H         4.65248542       6.40667418       2.21751085         0.00000000       0.00000000       0.00000000          1
H         5.14034268       8.55898939       0.50466813         0.00000000       0.00000000       0.00000000          1
H         3.94746119      10.29201371       2.34259135         0.00000000       0.00000000       0.00000000          1
H         6.05258581       8.63955916       3.14391861         0.00000000       0.00000000       0.00000000          1
H         3.45960138       8.13969762       4.05543254         0.00000000       0.00000000       0.00000000          1
H         2.54735592       8.05912741       1.41619628         0.00000000       0.00000000       0.00000000          1
6
pbc=[F, F, F] list_num_par=6 energy=-1.26974174 iter=20000 frozen=false Lattice="15.00000000 0.00000000 0.00000000 0.00000000 15.00000000 0.00000000 0.00000000 0.00000000 15.00000000" energy_frozen_part=0.00000000 Properties=species:S:1:pos:R:3:velocities:R:3:Z:I:1
H         4.65065324       6.40609043       2.20447015         0.00000000       0.00000000       0.00000000          1
H         5.12277339       8.55096450       0.47794878         0.00000000       0.00000000       0.00000000          1
H         3.94270854      10.29126884       2.31724861         0.00000000       0.00000000       0.00000000          1
H         6.05577694       8.64458244       3.10949267         0.00000000       0.00000000       0.00000000          1
H         3.47058317       8.14639978       4.04377879         0.00000000       0.00000000       0.00000000          1
H         2.53757944       8.05277162       1.41223525         0.00000000       0.00000000       0.00000000          1
6
pbc=[F, F, F] list_num_par=6 energy=-1.26974174 iter=20000 frozen=false Lattice="15.00000000 0.00000000 0.00000000 0.00000000 15.00000000 0.00000000 0.00000000 0.00000000 15.00000000" energy_frozen_part=0.00000000 Properties=species:S:1:pos:R:3:velocities:R:3:Z:I:1
H         4.65071534       6.40688121       2.20484428         0.00000000       0.00000000       0.00000000          1
H         5.12346443       8.55194571       0.47871797         0.00000000       0.00000000       0.00000000          1
H         3.94250014      10.29202206       2.31767280         0.00000000       0.00000000       0.00000000          1
H         6.05532220       8.64537309       3.11067278         0.00000000       0.00000000       0.00000000          1
H         3.46975771       8.14696449       4.04380124         0.00000000       0.00000000       0.00000000          1
H         2.53789398       8.05353022       1.41184627         0.00000000       0.00000000       0.00000000          1
6
pbc=[F, F, F] list_num_par=6 energy=-1.26974174 iter=20000 frozen=false Lattice="15.00000000 0.00000000 0.00000000 0.00000000 15.00000000 0.00000000 0.00000000 0.00000000 15.00000000" energy_frozen_part=0.00000000 Properties=species:S:1:pos:R:3:velocities:R:3:Z:I:1
H         4.65037794       6.40606488       2.20464761         0.00000000       0.00000000       0.00000000          1
H         5.12257898       8.55071837       0.47787391         0.00000000       0.00000000       0.00000000          1
H         3.94299290      10.29135386       2.31717685         0.00000000       0.00000000       0.00000000          1
H         6.05593726       8.64443961       3.10928310         0.00000000       0.00000000       0.00000000          1
H         3.47079961       8.14669720       4.04395421         0.00000000       0.00000000       0.00000000          1
H         2.53744275       8.05297393       1.41254119         0.00000000       0.00000000       0.00000000          1
6
pbc=[F, F, F] list_num_par=6 energy=-1.26974174 iter=20000 frozen=false Lattice="15.00000000 0.00000000 0.00000000 0.00000000 15.00000000 0.00000000 0.00000000 0.00000000 15.00000000" energy_frozen_part=0.00000000 Properties=species:S:1:pos:R:3:velocities:R:3:Z:I:1
H         4.65239445       6.40701246       2.21689009         0.00000000       0.00000000       0.00000000          1
H         5.14012137       8.55970316       0.50448244         0.00000000       0.00000000       0.00000000          1
H         3.94741075      10.29232336       2.34289412         0.00000000       0.00000000       0.00000000          1
H         6.05259549       8.63967839       3.14367072         0.00000000       0.00000000       0.00000000          1
H         3.45967740       8.13963751       4.05529761         0.00000000       0.00000000       0.00000000          1
H         2.54721275       8.05966208       1.41611347         0.00000000       0.00000000       0.00000000          1
6
pbc=[F, F, F] list_num_par=6 energy=-1.26974174 iter=20000 frozen=false Lattice="15.00000000 0.00000000 0.00000000 0.00000000 15.00000000 0.00000000 0.00000000 0.00000000 15.00000000" energy_frozen_part=0.00000000 Properties=species:S:1:pos:R:3:velocities:R:3:Z:I:1
H         4.65043788       6.40605057       2.20462783         0.00000000       0.00000000       0.00000000          1
H         5.12255793       8.55075285       0.47789072         0.00000000       0.00000000       0.00000000          1
H         3.94287839      10.29131410       2.31721860         0.00000000       0.00000000       0.00000000          1
H         6.05588707       8.64447394       3.10931656         0.00000000       0.00000000       0.00000000          1
H         3.47075969       8.14660501       4.04394630         0.00000000       0.00000000       0.00000000          1
H         2.53743186       8.05288459       1.41252128         0.00000000       0.00000000       0.00000000          1
6
pbc=[F, F, F] list_num_par=6 energy=-1.26974174 iter=20000 frozen=false Lattice="15.00000000 0.00000000 0.00000000 0.00000000 15.00000000 0.00000000 0.00000000 0.00000000 15.00000000" energy_frozen_part=0.00000000 Properties=species:S:1:pos:R:3:velocities:R:3:Z:I:1
H         4.65085299       6.40700907       2.20511309         0.00000000       0.00000000       0.00000000          1
H         5.12331509       8.55199591       0.47882390         0.00000000       0.00000000       0.00000000          1
H         3.94224637      10.29207429       2.31771260         0.00000000       0.00000000       0.00000000          1
H         6.05525855       8.64570618       3.11074528         0.00000000       0.00000000       0.00000000          1
H         3.46977622       8.14708652       4.04399491         0.00000000       0.00000000       0.00000000          1
H         2.53783424       8.05338367       1.41207520         0.00000000       0.00000000       0.00000000          1
6
pbc=[F, F, F] list_num_par=6 energy=-1.26974174 iter=20000 frozen=false Lattice="15.00000000 0.00000000 0.00000000 0.00000000 15.00000000 0.00000000 0.00000000 0.00000000 15.00000000" energy_frozen_part=0.00000000 Properties=species:S:1:pos:R:3:velocities:R:3:Z:I:1
H         4.65038922       6.40609275       2.20465582         0.00000000       0.00000000       0.00000000          1
H         5.12270520       8.55078785       0.47796562         0.00000000       0.00000000       0.00000000          1
H         3.94302493      10.29138863       2.31725216         0.00000000       0.00000000       0.00000000          1
H         6.05590547       8.64443284       3.10943412         0.00000000       0.00000000       0.00000000          1
H         3.47070659       8.14668250       4.04393892         0.00000000       0.00000000       0.00000000          1
H         2.53750815       8.05305055       1.41246008         0.00000000       0.00000000       0.00000000          1
6
pbc=[F, F, F] list_num_par=6 energy=-1.26974174 iter=20000 frozen=false Lattice="15.00000000 0.00000000 0.00000000 0.00000000 15.00000000 0.00000000 0.00000000 0.00000000 15.00000000" energy_frozen_part=0.00000000 Properties=species:S:1:pos:R:3:velocities:R:3:Z:I:1
H         4.65233033       6.40702186       2.21693496         0.00000000       0.00000000       0.00000000          1
H         5.14010737       8.55969137       0.50451198         0.00000000       0.00000000       0.00000000          1
H         3.94741009      10.29234655       2.34290493         0.00000000       0.00000000       0.00000000          1
H         6.05256156       8.63967272       3.14370466         0.00000000       0.00000000       0.00000000          1
H         3.45962837       8.13967536       4.05531437         0.00000000       0.00000000       0.00000000          1
H         2.54717994       8.05969631       1.41612296         0.00000000       0.00000000       0.00000000          1
6
pbc=[F, F, F] list_num_par=6 energy=-1.26974174 iter=20000 frozen=false Lattice="15.00000000 0.00000000 0.00000000 0.00000000 15.00000000 0.00000000 0.00000000 0.00000000 15.00000000" energy_frozen_part=0.00000000 Properties=species:S:1:pos:R:3:velocities:R:3:Z:I:1
H         4.65047660       6.40607513       2.20463310         0.00000000       0.00000000       0.00000000          1
H         5.12259969       8.55079170       0.47792007         0.00000000       0.00000000       0.00000000          1
H         3.94288887      10.29132806       2.31723117         0.00000000       0.00000000       0.00000000          1
H         6.05589949       8.64450585       3.10935010         0.00000000       0.00000000       0.00000000          1
H         3.47076267       8.14661073       4.04394941         0.00000000       0.00000000       0.00000000          1
H         2.53746715       8.05290215       1.41251328         0.00000000       0.00000000       0.00000000          1
6
pbc=[F, F, F] list_num_par=6 energy=-1.26974174 iter=20000 frozen=false Lattice="15.00000000 0.00000000 0.00000000 0.00000000 15.00000000 0.00000000 0.00000000 0.00000000 15.00000000" energy_frozen_part=0.00000000 Properties=species:S:1:pos:R:3:velocities:R:3:Z:I:1
H         4.65241279       6.40700782       2.21689186         0.00000000       0.00000000       0.00000000          1
H         5.14013938       8.55970923       0.50450173         0.00000000       0.00000000       0.00000000          1
H         3.94741437      10.29232920       2.34290211         0.00000000       0.00000000       0.00000000          1
H         6.05260590       8.63968476       3.14368380         0.00000000       0.00000000       0.00000000          1
H         3.45969248       8.13962418       4.05529539         0.00000000       0.00000000       0.00000000          1
H         2.54722999       8.05965330       1.41610762         0.00000000       0.00000000       0.00000000          1
6
pbc=[F, F, F] list_num_par=6 energy=-1.26974174 iter=20000 frozen=false Lattice="15.00000000 0.00000000 0.00000000 0.00000000 15.00000000 0.00000000 0.00000000 0.00000000 15.00000000" energy_frozen_part=0.00000000 Properties=species:S:1:pos:R:3:velocities:R:3:Z:I:1
H         4.65046488       6.40603429       2.20459159         0.00000000       0.00000000       0.00000000          1
H         5.12251697       8.55076786       0.47787813         0.00000000       0.00000000       0.00000000          1
H         3.94287732      10.29128592       2.31725763         0.00000000       0.00000000       0.00000000          1
H         6.05591854       8.64445261       3.10927971         0.00000000       0.00000000       0.00000000          1
H         3.47081856       8.14655288       4.04397375         0.00000000       0.00000000       0.00000000          1
H         2.53742594       8.05285596       1.41257046         0.00000000       0.00000000       0.00000000          1
6
pbc=[F, F, F] list_num_par=6 energy=-1.26974174 iter=20000 frozen=false Lattice="15.00000000 0.00000000 0.00000000 0.00000000 15.00000000 0.00000000 0.00000000 0.00000000 15.00000000" energy_frozen_part=0.00000000 Properties=species:S:1:pos:R:3:velocities:R:3:Z:I:1
H         4.65043215       6.40602985       2.20465191         0.00000000       0.00000000       0.00000000          1
H         5.12258515       8.55072317       0.47789899         0.00000000       0.00000000       0.00000000          1
H         3.94288117      10.29129509       2.31719040         0.00000000       0.00000000       0.00000000          1
H         6.05586218       8.64445722       3.10934151         0.00000000       0.00000000       0.00000000          1
H         3.47072049       8.14660506       4.04394520         0.00000000       0.00000000       0.00000000          1
H         2.53744270       8.05286359       1.41250198         0.00000000       0.00000000       0.00000000          1
6
pbc=[F, F, F] list_num_par=6 energy=-1.26974174 iter=20000 frozen=false Lattice="15.00000000 0.00000000 0.00000000 0.00000000 15.00000000 0.00000000 0.00000000 0.00000000 15.00000000" energy_frozen_part=0.00000000 Properties=species:S:1:pos:R:3:velocities:R:3:Z:I:1
H         4.65249058       6.40668252       2.21753801         0.00000000       0.00000000       0.00000000          1
H         5.14035122       8.55898906       0.50468456         0.00000000       0.00000000       0.00000000          1
H         3.94743829      10.29202114       2.34257457         0.00000000       0.00000000       0.00000000          1
H         6.05257240       8.63958969       3.14393343         0.00000000       0.00000000       0.00000000          1
H         3.45957887       8.13971365       4.05542246         0.00000000       0.00000000       0.00000000          1
H         2.54736111       8.05912500       1.41617577         0.00000000       0.00000000       0.00000000          1
6
pbc=[F, F, F] list_num_par=6 energy=-1.26974174 iter=20000 frozen=false Lattice="15.00000000 0.00000000 0.00000000 0.00000000 15.00000000 0.00000000 0.00000000 0.00000000 15.00000000" energy_frozen_part=0.00000000 Properties=species:S:1:pos:R:3:velocities:R:3:Z:I:1
H         4.65045677       6.40602795       2.20460631         0.00000000       0.00000000       0.00000000          1
H         5.12251328       8.55076093       0.47788578         0.00000000       0.00000000       0.00000000          1
H         3.94288003      10.29128192       2.31726682         0.00000000       0.00000000       0.00000000          1
H         6.05591654       8.64444552       3.10929122         0.00000000       0.00000000       0.00000000          1
H         3.47081803       8.14655028       4.04399203         0.00000000       0.00000000       0.00000000          1
H         2.53742375       8.05286950       1.41258747         0.00000000       0.00000000       0.00000000          1
6
pbc=[F, F, F] list_num_par=6 energy=-1.26974174 iter=20000 frozen=false Lattice="15.00000000 0.00000000 0.00000000 0.00000000 15.00000000 0.00000000 0.00000000 0.00000000 15.00000000" energy_frozen_part=0.00000000 Properties=species:S:1:pos:R:3:velocities:R:3:Z:I:1
H         4.65039325       6.40609295       2.20464403         0.00000000       0.00000000       0.00000000          1
H         5.12271695       8.55079479       0.47795956         0.00000000       0.00000000       0.00000000          1
H         3.94302256      10.29138071       2.31724959         0.00000000       0.00000000       0.00000000          1
H         6.05589804       8.64443129       3.10944884         0.00000000       0.00000000       0.00000000          1
H         3.47069044       8.14667793       4.04392877         0.00000000       0.00000000       0.00000000          1
H         2.53751788       8.05304442       1.41244367         0.00000000       0.00000000       0.00000000          1
6
pbc=[F, F, F] list_num_par=6 energy=-1.26974174 iter=20000 frozen=false Lattice="15.00000000 0.00000000 0.00000000 0.00000000 15.00000000 0.00000000 0.00000000 0.00000000 15.00000000" energy_frozen_part=0.00000000 Properties=species:S:1:pos:R:3:velocities:R:3:Z:I:1
H         4.65044698       6.40604960       2.20463423         0.00000000       0.00000000       0.00000000          1
H         5.12258110       8.55075950       0.47790962         0.00000000       0.00000000       0.00000000          1
H         3.94288872      10.29131395       2.31722567         0.00000000       0.00000000       0.00000000          1
H         6.05587938       8.64447081       3.10934753         0.00000000       0.00000000       0.00000000          1
H         3.47075281       8.14660354       4.04395658         0.00000000       0.00000000       0.00000000          1
H         2.53745055       8.05289746       1.41252569         0.00000000       0.00000000       0.00000000          1
6
pbc=[F, F, F] list_num_par=6 energy=-1.26974174 iter=20000 frozen=false Lattice="15.00000000 0.00000000 0.00000000 0.00000000 15.00000000 0.00000000 0.00000000 0.00000000 15.00000000" energy_frozen_part=0.00000000 Properties=species:S:1:pos:R:3:velocities:R:3:Z:I:1
H         4.65240202       6.40701139       2.21689756         0.00000000       0.00000000       0.00000000          1
H         5.14012322       8.55970099       0.50449070         0.00000000       0.00000000       0.00000000          1
H         3.94741910      10.29232848       2.34290515         0.00000000       0.00000000       0.00000000          1
H         6.05260313       8.63967207       3.14366864         0.00000000       0.00000000       0.00000000          1
H         3.45969672       8.13964142       4.05530945         0.00000000       0.00000000       0.00000000          1
H         2.54721568       8.05965582       1.41612913         0.00000000       0.00000000       0.00000000          1
6
pbc=[F, F, F] list_num_par=6 energy=-1.26974174 iter=20000 frozen=false Lattice="15.00000000 0.00000000 0.00000000 0.00000000 15.00000000 0.00000000 0.00000000 0.00000000 15.00000000" energy_frozen_part=0.00000000 Properties=species:S:1:pos:R:3:velocities:R:3:Z:I:1
H         4.65073277       6.40612519       2.20447475         0.00000000       0.00000000       0.00000000          1
H         5.12286672       8.55107232       0.47803515         0.00000000       0.00000000       0.00000000          1
H         3.94277891      10.29130554       2.31739366         0.00000000       0.00000000       0.00000000          1
H         6.05583816       8.64458914       3.10959691         0.00000000       0.00000000       0.00000000          1
H         3.47063769       8.14635708       4.04382857         0.00000000       0.00000000       0.00000000          1
H         2.53767495       8.05284462       1.41226620         0.00000000       0.00000000       0.00000000          1
6
pbc=[F, F, F] list_num_par=6 energy=-1.26974174 iter=20000 frozen=false Lattice="15.00000000 0.00000000 0.00000000 0.00000000 15.00000000 0.00000000 0.00000000 0.00000000 15.00000000" energy_frozen_part=0.00000000 Properties=species:S:1:pos:R:3:velocities:R:3:Z:I:1
H         4.65085079       6.40700043       2.20510555         0.00000000       0.00000000       0.00000000          1
H         5.12332196       8.55199221       0.47881258         0.00000000       0.00000000       0.00000000          1
H         3.94224884      10.29207179       2.31768816         0.00000000       0.00000000       0.00000000          1
H         6.05525851       8.64570310       3.11073607         0.00000000       0.00000000       0.00000000          1
H         3.46977246       8.14708915       4.04397994         0.00000000       0.00000000       0.00000000          1
H         2.53784452       8.05337622       1.41205903         0.00000000       0.00000000       0.00000000          1
6
pbc=[F, F, F] list_num_par=6 energy=-1.26974174 iter=20000 frozen=false Lattice="15.00000000 0.00000000 0.00000000 0.00000000 15.00000000 0.00000000 0.00000000 0.00000000 15.00000000" energy_frozen_part=0.00000000 Properties=species:S:1:pos:R:3:velocities:R:3:Z:I:1
H         4.65246266       6.40668326       2.21751614         0.00000000       0.00000000       0.00000000          1
H         5.14032496       8.55900011       0.50467267         0.00000000       0.00000000       0.00000000          1
H         3.94744858      10.29202229       2.34260242         0.00000000       0.00000000       0.00000000          1
H         6.05256618       8.63956073       3.14391790         0.00000000       0.00000000       0.00000000          1
H         3.45958340       8.13970188       4.05543783         0.00000000       0.00000000       0.00000000          1
H         2.54733840       8.05914268       1.41618926         0.00000000       0.00000000       0.00000000          1
6
pbc=[F, F, F] list_num_par=6 energy=-1.26974174 iter=20000 frozen=false Lattice="15.00000000 0.00000000 0.00000000 0.00000000 15.00000000 0.00000000 0.00000000 0.00000000 15.00000000" energy_frozen_part=0.00000000 Properties=species:S:1:pos:R:3:velocities:R:3:Z:I:1
H         4.65046633       6.40605791       2.20460081         0.00000000       0.00000000       0.00000000          1
H         5.12253024       8.55078801       0.47787465         0.00000000       0.00000000       0.00000000          1
H         3.94288444      10.29131024       2.31724631         0.00000000       0.00000000       0.00000000          1
H         6.05591910       8.64448156       3.10928444         0.00000000       0.00000000       0.00000000          1
H         3.47082144       8.14658607       4.04397740         0.00000000       0.00000000       0.00000000          1
H         2.53743415       8.05289513       1.41256673         0.00000000       0.00000000       0.00000000          1
6
pbc=[F, F, F] list_num_par=6 energy=-1.26974174 iter=20000 frozen=false Lattice="15.00000000 0.00000000 0.00000000 0.00000000 15.00000000 0.00000000 0.00000000 0.00000000 15.00000000" energy_frozen_part=0.00000000 Properties=species:S:1:pos:R:3:velocities:R:3:Z:I:1
H         4.65237439       6.40702942       2.21693404         0.00000000       0.00000000       0.00000000          1
H         5.14014650       8.55969984       0.50452276         0.00000000       0.00000000       0.00000000          1
H         3.94740088      10.29235316       2.34287953         0.00000000       0.00000000       0.00000000          1
H         6.05255778       8.63970636       3.14371776         0.00000000       0.00000000       0.00000000          1
H         3.45962490       8.13968361       4.05529627         0.00000000       0.00000000       0.00000000          1
H         2.54721454       8.05967977       1.41610006         0.00000000       0.00000000       0.00000000          1
6
pbc=[F, F, F] list_num_par=6 energy=-1.26974174 iter=20000 frozen=false Lattice="15.00000000 0.00000000 0.00000000 0.00000000 15.00000000 0.00000000 0.00000000 0.00000000 15.00000000" energy_frozen_part=0.00000000 Properties=species:S:1:pos:R:3:velocities:R:3:Z:I:1
H         4.65038884       6.40607861       2.20463531         0.00000000       0.00000000       0.00000000          1
H         5.12256095       8.55074584       0.47786233         0.00000000       0.00000000       0.00000000          1
H         3.94298898      10.29136473       2.31719621         0.00000000       0.00000000       0.00000000          1
H         6.05594685       8.64445722       3.10927326         0.00000000       0.00000000       0.00000000          1
H         3.47081965       8.14669846       4.04396157         0.00000000       0.00000000       0.00000000          1
H         2.53743159       8.05299047       1.41254946         0.00000000       0.00000000       0.00000000          1
6
pbc=[F, F, F] list_num_par=6 energy=-1.26974174 iter=20000 frozen=false Lattice="15.00000000 0.00000000 0.00000000 0.00000000 15.00000000 0.00000000 0.00000000 0.00000000 15.00000000" energy_frozen_part=0.00000000 Properties=species:S:1:pos:R:3:velocities:R:3:Z:I:1
H         4.65067612       6.40611782       2.20440752         0.00000000       0.00000000       0.00000000          1
H         5.12278918       8.55105953       0.47796400         0.00000000       0.00000000       0.00000000          1
H         3.94276494      10.29130578       2.31736279         0.00000000       0.00000000       0.00000000          1
H         6.05582774       8.64455689       3.10949997         0.00000000       0.00000000       0.00000000          1
H         3.47064847       8.14636371       4.04380351         0.00000000       0.00000000       0.00000000          1
H         2.53761058       8.05286062       1.41227688         0.00000000       0.00000000       0.00000000          1
6
pbc=[F, F, F] list_num_par=6 energy=-1.26974174 iter=20000 frozen=false Lattice="15.00000000 0.00000000 0.00000000 0.00000000 15.00000000 0.00000000 0.00000000 0.00000000 15.00000000" energy_frozen_part=0.00000000 Properties=species:S:1:pos:R:3:velocities:R:3:Z:I:1
H         4.65073408       6.40612093       2.20447273         0.00000000       0.00000000       0.00000000          1
H         5.12286405       8.55106865       0.47803966         0.00000000       0.00000000       0.00000000          1
H         3.94277794      10.29129526       2.31739947         0.00000000       0.00000000       0.00000000          1
H         6.05584168       8.64457858       3.10959362         0.00000000       0.00000000       0.00000000          1
H         3.47064590       8.14635267       4.04383422         0.00000000       0.00000000       0.00000000          1
H         2.53766975       8.05283143       1.41227428         0.00000000       0.00000000       0.00000000          1
6
pbc=[F, F, F] list_num_par=6 energy=-1.26974174 iter=20000 frozen=false Lattice="15.00000000 0.00000000 0.00000000 0.00000000 15.00000000 0.00000000 0.00000000 0.00000000 15.00000000" energy_frozen_part=0.00000000 Properties=species:S:1:pos:R:3:velocities:R:3:Z:I:1
H         4.65233498       6.40698258       2.21693932         0.00000000       0.00000000       0.00000000          1
H         5.14009290       8.55964848       0.50450887         0.00000000       0.00000000       0.00000000          1
H         3.94740212      10.29231695       2.34290153         0.00000000       0.00000000       0.00000000          1
H         6.05256623       8.63964261       3.14368808         0.00000000       0.00000000       0.00000000          1
H         3.45965601       8.13964730       4.05533046         0.00000000       0.00000000       0.00000000          1
H         2.54717660       8.05965200       1.41615241         0.00000000       0.00000000       0.00000000          1
6
pbc=[F, F, F] list_num_par=6 energy=-1.26974174 iter=20000 frozen=false Lattice="15.00000000 0.00000000 0.00000000 0.00000000 15.00000000 0.00000000 0.00000000 0.00000000 15.00000000" energy_frozen_part=0.00000000 Properties=species:S:1:pos:R:3:velocities:R:3:Z:I:1
H         4.65069765       6.40612782       2.20448063         0.00000000       0.00000000       0.00000000          1
H         5.12284510       8.55107296       0.47803862         0.00000000       0.00000000       0.00000000          1
H         3.94274177      10.29131440       2.31738803         0.00000000       0.00000000       0.00000000          1
H         6.05580800       8.64459520       3.10959815         0.00000000       0.00000000       0.00000000          1
H         3.47060523       8.14637578       4.04382753         0.00000000       0.00000000       0.00000000          1
H         2.53764547       8.05284743       1.41226829         0.00000000       0.00000000       0.00000000          1
6
pbc=[F, F, F] list_num_par=6 energy=-1.26974174 iter=20000 frozen=false Lattice="15.00000000 0.00000000 0.00000000 0.00000000 15.00000000 0.00000000 0.00000000 0.00000000 15.00000000" energy_frozen_part=0.00000000 Properties=species:S:1:pos:R:3:velocities:R:3:Z:I:1
H         4.65046309       6.40604801       2.20461560         0.00000000       0.00000000       0.00000000          1
H         5.12253280       8.55077235       0.47788930         0.00000000       0.00000000       0.00000000          1