6
pbc=[F, F, F] list_num_par=6 energy=-1.26974174 iter=20000 frozen=false Lattice="15.00000000 0.00000000 0.00000000 0.00000000 15.00000000 0.00000000 0.00000000 0.00000000 15.00000000" energy_frozen_part=0.00000000 Properties=species:S:1:pos:R:3:velocities:R:3:Z:I:1
H         2.88658563       4.67746260       2.52418710         0.00000000       0.00000000       0.00000000          1
H         0.49821834       1.79344745       3.78380648         0.00000000       0.00000000       0.00000000          1
H         0.26746174       4.56187362       3.48911699         0.00000000       0.00000000       0.00000000          1
H         1.02486385       2.98373447       1.31193738         0.00000000       0.00000000       0.00000000          1
H         3.11734270       1.90903802       2.81888031         0.00000000       0.00000000       0.00000000          1
H         2.35993907       3.48717578       4.99605602         0.00000000       0.00000000       0.00000000          1
6
pbc=[F, F, F] list_num_par=6 energy=-1.26974174 iter=20000 frozen=false Lattice="15.00000000 0.00000000 0.00000000 0.00000000 15.00000000 0.00000000 0.00000000 0.00000000 15.00000000" energy_frozen_part=0.00000000 Properties=species:S:1:pos:R:3:velocities:R:3:Z:I:1
H         2.89477285       4.68944090       2.54923025         0.00000000       0.00000000       0.00000000          1
H         0.50760638       1.78658918       3.76721234         0.00000000       0.00000000       0.00000000          1
H         0.27097415       4.55723523       3.49924145         0.00000000       0.00000000       0.00000000          1
H         1.04391961       3.00314796       1.31025388         0.00000000       0.00000000       0.00000000          1
H         3.13139437       1.91879547       2.81720110         0.00000000       0.00000000       0.00000000          1
H         2.35845821       3.47287978       5.00618798         0.00000000       0.00000000       0.00000000          1
6
pbc=[F, F, F] list_num_par=6 energy=-1.26974174 iter=20000 frozen=false Lattice="15.00000000 0.00000000 0.00000000 0.00000000 15.00000000 0.00000000 0.00000000 0.00000000 15.00000000" energy_frozen_part=0.00000000 Properties=species:S:1:pos:R:3:velocities:R:3:Z:I:1
H         2.88480100       4.68018461       2.52480743         0.00000000       0.00000000       0.00000000          1
H         0.50201512       1.79214803       3.78582227         0.00000000       0.00000000       0.00000000          1
H         0.26604623       4.56003568       3.49020409         0.00000000       0.00000000       0.00000000          1
H         1.02604170       2.98256206       1.31344809         0.00000000       0.00000000       0.00000000          1
H         3.12076086       1.91229442       2.82041683         0.00000000       0.00000000       0.00000000          1
H         2.36076959       3.48977008       4.99717063         0.00000000       0.00000000       0.00000000          1
6
pbc=[F, F, F] list_num_par=6 energy=-1.26974174 iter=20000 frozen=false Lattice="15.00000000 0.00000000 0.00000000 0.00000000 15.00000000 0.00000000 0.00000000 0.00000000 15.00000000" energy_frozen_part=0.00000000 Properties=species:S:1:pos:R:3:velocities:R:3:Z:I:1
H         2.88481234       4.68013682       2.52477032         0.00000000       0.00000000       0.00000000          1
H         0.50200023       1.79212111       3.78578567         0.00000000       0.00000000       0.00000000          1
H         0.26605987       4.56001061       3.49017104         0.00000000       0.00000000       0.00000000          1
H         1.02603521       2.98253049       1.31341110         0.00000000       0.00000000       0.00000000          1
H         3.12074591       1.91224346       2.82037295         0.00000000       0.00000000       0.00000000          1
H         2.36077937       3.48972328       4.99713589         0.00000000       0.00000000       0.00000000          1
6
pbc=[F, F, F] list_num_par=6 energy=-1.26974174 iter=20000 frozen=false Lattice="15.00000000 0.00000000 0.00000000 0.00000000 15.00000000 0.00000000 0.00000000 0.00000000 15.00000000" energy_frozen_part=0.00000000 Properties=species:S:1:pos:R:3:velocities:R:3:Z:I:1
H         2.89601893       4.68826822       2.55117857         0.00000000       0.00000000       0.00000000          1
H         0.50624341       1.78719922       3.76827567         0.00000000       0.00000000       0.00000000          1
H         0.27263790       4.55832218       3.50263977         0.00000000       0.00000000       0.00000000          1
H         1.04249979       3.00508577       1.31196547         0.00000000       0.00000000       0.00000000          1
H         3.12962606       1.91713698       2.81681826         0.00000000       0.00000000       0.00000000          1
H         2.35977084       3.47037965       5.00748852         0.00000000       0.00000000       0.00000000          1
6
pbc=[F, F, F] list_num_par=6 energy=-1.26974174 iter=20000 frozen=false Lattice="15.00000000 0.00000000 0.00000000 0.00000000 15.00000000 0.00000000 0.00000000 0.00000000 15.00000000" energy_frozen_part=0.00000000 Properties=species:S:1:pos:R:3:velocities:R:3:Z:I:1
H         2.89845895       4.68887280       2.55149008         0.00000000       0.00000000       0.00000000          1
H         0.50481071       1.79033337       3.76700910         0.00000000       0.00000000       0.00000000          1
H         0.27411441       4.56164282       3.50065188         0.00000000       0.00000000       0.00000000          1
H         1.04441022       3.00725263       1.31095166         0.00000000       0.00000000       0.00000000          1
H         3.12915298       1.91756545       2.81783761         0.00000000       0.00000000       0.00000000          1
H         2.35885622       3.47195103       5.00754514         0.00000000       0.00000000       0.00000000          1
6
pbc=[F, F, F] list_num_par=6 energy=-1.26974174 iter=20000 frozen=false Lattice="15.00000000 0.00000000 0.00000000 0.00000000 15.00000000 0.00000000 0.00000000 0.00000000 15.00000000" energy_frozen_part=0.00000000 Properties=species:S:1:pos:R:3:velocities:R:3:Z:I:1
H         2.89478781       4.68942083       2.54923895         0.00000000       0.00000000       0.00000000          1
H         0.50758791       1.78662233       3.76726312         0.00000000       0.00000000       0.00000000          1
H         0.27099364       4.55726419       3.49924861         0.00000000       0.00000000       0.00000000          1
H         1.04391387       3.00314098       1.31028462         0.00000000       0.00000000       0.00000000          1
H         3.13138186       1.91877875       2.81725422         0.00000000       0.00000000       0.00000000          1
H         2.35845953       3.47290437       5.00621468         0.00000000       0.00000000       0.00000000          1
6
pbc=[F, F, F] list_num_par=6 energy=-1.26974174 iter=20000 frozen=false Lattice="15.00000000 0.00000000 0.00000000 0.00000000 15.00000000 0.00000000 0.00000000 0.00000000 15.00000000" energy_frozen_part=0.00000000 Properties=species:S:1:pos:R:3:velocities:R:3:Z:I:1
H         2.88488801       4.68010920       2.52464956         0.00000000       0.00000000       0.00000000          1
H         0.50195237       1.79227342       3.78583381         0.00000000       0.00000000       0.00000000          1
H         0.26613654       4.56016291       3.49006750         0.00000000       0.00000000       0.00000000          1
H         1.02603087       2.98251675       1.31339991         0.00000000       0.00000000       0.00000000          1
H         3.12070944       1.91222098       2.82042313         0.00000000       0.00000000       0.00000000          1
H         2.36080832       3.48986458       4.99708465         0.00000000       0.00000000       0.00000000          1
6
pbc=[F, F, F] list_num_par=6 energy=-1.26974174 iter=20000 frozen=false Lattice="15.00000000 0.00000000 0.00000000 0.00000000 15.00000000 0.00000000 0.00000000 0.00000000 15.00000000" energy_frozen_part=0.00000000 Properties=species:S:1:pos:R:3:velocities:R:3:Z:I:1
H         2.89478790       4.68944563       2.54926542         0.00000000       0.00000000       0.00000000          1
H         0.50759126       1.78660776       3.76722112         0.00000000       0.00000000       0.00000000          1
H         0.27098800       4.55725945       3.49926567         0.00000000       0.00000000       0.00000000          1
H         1.04392851       3.00317856       1.31027756         0.00000000       0.00000000       0.00000000          1
H         3.13139308       1.91878946       2.81722262         0.00000000       0.00000000       0.00000000          1
H         2.35844864       3.47287843       5.00620988         0.00000000       0.00000000       0.00000000          1
6
pbc=[F, F, F] list_num_par=6 energy=-1.26974174 iter=20000 frozen=false Lattice="15.00000000 0.00000000 0.00000000 0.00000000 15.00000000 0.00000000 0.00000000 0.00000000 15.00000000" energy_frozen_part=0.00000000 Properties=species:S:1:pos:R:3:velocities:R:3:Z:I:1
H         2.89603190       4.68824862       2.55119035         0.00000000       0.00000000       0.00000000          1
H         0.50624122       1.78718835       3.76827289         0.00000000       0.00000000       0.00000000          1
H         0.27264461       4.55831689       3.50264401         0.00000000       0.00000000       0.00000000          1
H         1.04250029       3.00508910       1.31196689         0.00000000       0.00000000       0.00000000          1
H         3.12961858       1.91712096       2.81681570         0.00000000       0.00000000       0.00000000          1
H         2.35975922       3.47035918       5.00749540         0.00000000       0.00000000       0.00000000          1
6
pbc=[F, F, F] list_num_par=6 energy=-1.26974174 iter=20000 frozen=false Lattice="15.00000000 0.00000000 0.00000000 0.00000000 15.00000000 0.00000000 0.00000000 0.00000000 15.00000000" energy_frozen_part=0.00000000 Properties=species:S:1:pos:R:3:velocities:R:3:Z:I:1
H         2.88656935       4.67749776       2.52412792         0.00000000       0.00000000       0.00000000          1
H         0.49824114       1.79345148       3.78377848         0.00000000       0.00000000       0.00000000          1
H         0.26746192       4.56187729       3.48909679         0.00000000       0.00000000       0.00000000          1
H         1.02485461       2.98374217       1.31190659         0.00000000       0.00000000       0.00000000          1
H         3.11735948       1.90906905       2.81882015         0.00000000       0.00000000       0.00000000          1
H         2.35996987       3.48719930       4.99600420         0.00000000       0.00000000       0.00000000          1
6
pbc=[F, F, F] list_num_par=6 energy=-1.26974174 iter=20000 frozen=false Lattice="15.00000000 0.00000000 0.00000000 0.00000000 15.00000000 0.00000000 0.00000000 0.00000000 15.00000000" energy_frozen_part=0.00000000 Properties=species:S:1:pos:R:3:velocities:R:3:Z:I:1
H         2.88489004       4.68009781       2.52467625         0.00000000       0.00000000       0.00000000          1
H         0.50196427       1.79224993       3.78585417         0.00000000       0.00000000       0.00000000          1
H         0.26613994       4.56013234       3.49009628         0.00000000       0.00000000       0.00000000          1
H         1.02604026       2.98251173       1.31341784         0.00000000       0.00000000       0.00000000          1
H         3.12071211       1.91220701       2.82043005         0.00000000       0.00000000       0.00000000          1
H         2.36081472       3.48983773       4.99710867         0.00000000       0.00000000       0.00000000          1
6
pbc=[F, F, F] list_num_par=6 energy=-1.26974174 iter=20000 frozen=false Lattice="15.00000000 0.00000000 0.00000000 0.00000000 15.00000000 0.00000000 0.00000000 0.00000000 15.00000000" energy_frozen_part=0.00000000 Properties=species:S:1:pos:R:3:velocities:R:3:Z:I:1
H         2.89479051       4.68945110       2.54926184         0.00000000       0.00000000       0.00000000          1
H         0.50760391       1.78661080       3.76722803         0.00000000       0.00000000       0.00000000          1
H         0.27099559       4.55726143       3.49926577         0.00000000       0.00000000       0.00000000          1
H         1.04392789       3.00317628       1.31028132         0.00000000       0.00000000       0.00000000          1
H         3.13139422       1.91880121       2.81722848         0.00000000       0.00000000       0.00000000          1
H         2.35845717       3.47288954       5.00621504         0.00000000       0.00000000       0.00000000          1
6
pbc=[F, F, F] list_num_par=6 energy=-1.26974174 iter=20000 frozen=false Lattice="15.00000000 0.00000000 0.00000000 0.00000000 15.00000000 0.00000000 0.00000000 0.00000000 15.00000000" energy_frozen_part=0.00000000 Properties=species:S:1:pos:R:3:velocities:R:3:Z:I:1
H         2.88657382       4.67749940       2.52412626         0.00000000       0.00000000       0.00000000          1
H         0.49825169       1.79345367       3.78379466         0.00000000       0.00000000       0.00000000          1
H         0.26746213       4.56187805       3.48909883         0.00000000       0.00000000       0.00000000          1
H         1.02485775       2.98374038       1.31191775         0.00000000       0.00000000       0.00000000          1
H         3.11736683       1.90907405       2.81882812         0.00000000       0.00000000       0.00000000          1
H         2.35997647       3.48720780       4.99600317         0.00000000       0.00000000       0.00000000          1
6
pbc=[F, F, F] list_num_par=6 energy=-1.26974174 iter=20000 frozen=false Lattice="15.00000000 0.00000000 0.00000000 0.00000000 15.00000000 0.00000000 0.00000000 0.00000000 15.00000000" energy_frozen_part=0.00000000 Properties=species:S:1:pos:R:3:velocities:R:3:Z:I:1
H         2.88489548       4.68006538       2.52464146         0.00000000       0.00000000       0.00000000          1
H         0.50193372       1.79227524       3.78585533         0.00000000       0.00000000       0.00000000          1
H         0.26615011       4.56015913       3.49007815         0.00000000       0.00000000       0.00000000          1
H         1.02600851       2.98249702       1.31341170         0.00000000       0.00000000       0.00000000          1
H         3.12068328       1.91218046       2.82041711         0.00000000       0.00000000       0.00000000          1
H         2.36081736       3.48983808       4.99708748         0.00000000       0.00000000       0.00000000          1
6
pbc=[F, F, F] list_num_par=6 energy=-1.26974174 iter=20000 frozen=false Lattice="15.00000000 0.00000000 0.00000000 0.00000000 15.00000000 0.00000000 0.00000000 0.00000000 15.00000000" energy_frozen_part=0.00000000 Properties=species:S:1:pos:R:3:velocities:R:3:Z:I:1
H         2.88479875       4.68013976       2.52475256         0.00000000       0.00000000       0.00000000          1
H         0.50198921       1.79213922       3.78579840         0.00000000       0.00000000       0.00000000          1
H         0.26605593       4.56002666       3.49016763         0.00000000       0.00000000       0.00000000          1
H         1.02601197       2.98253069       1.31341731         0.00000000       0.00000000       0.00000000          1
H         3.12073684       1.91225216       2.82038011         0.00000000       0.00000000       0.00000000          1
H         2.36077131       3.48975316       4.99713082         0.00000000       0.00000000       0.00000000          1
6
pbc=[F, F, F] list_num_par=6 energy=-1.26974174 iter=20000 frozen=false Lattice="15.00000000 0.00000000 0.00000000 0.00000000 15.00000000 0.00000000 0.00000000 0.00000000 15.00000000" energy_frozen_part=0.00000000 Properties=species:S:1:pos:R:3:velocities:R:3:Z:I:1
H         2.89476004       4.68944611       2.54923831         0.00000000       0.00000000       0.00000000          1
H         0.50761045       1.78659246       3.76722531         0.00000000       0.00000000       0.00000000          1
H         0.27097023       4.55723198       3.49924557         0.00000000       0.00000000       0.00000000          1
H         1.04391969       3.00314241       1.31026367         0.00000000       0.00000000       0.00000000          1
H         3.13139999       1.91880411       2.81721755         0.00000000       0.00000000       0.00000000          1
H         2.35844963       3.47288826       5.00620384         0.00000000       0.00000000       0.00000000          1
6
pbc=[F, F, F] list_num_par=6 energy=-1.26974174 iter=20000 frozen=false Lattice="15.00000000 0.00000000 0.00000000 0.00000000 15.00000000 0.00000000 0.00000000 0.00000000 15.00000000" energy_frozen_part=0.00000000 Properties=species:S:1:pos:R:3:velocities:R:3:Z:I:1
H         2.88480386       4.68018482       2.52483843         0.00000000       0.00000000       0.00000000          1
H         0.50196551       1.79215512       3.78577785         0.00000000       0.00000000       0.00000000          1
H         0.26603613       4.56005188       3.49018616         0.00000000       0.00000000       0.00000000          1
H         1.02605098       2.98259082       1.31343353         0.00000000       0.00000000       0.00000000          1
H         3.12073649       1.91228477       2.82042793         0.00000000       0.00000000       0.00000000          1
H         2.36071360       3.48975021       4.99717887         0.00000000       0.00000000       0.00000000          1
6
pbc=[F, F, F] list_num_par=6 energy=-1.26974174 iter=20000 frozen=false Lattice="15.00000000 0.00000000 0.00000000 0.00000000 15.00000000 0.00000000 0.00000000 0.00000000 15.00000000" energy_frozen_part=0.00000000 Properties=species:S:1:pos:R:3:velocities:R:3:Z:I:1
H         2.88479911       4.68018523       2.52485247         0.00000000       0.00000000       0.00000000          1
H         0.50196596       1.79213676       3.78574965         0.00000000       0.00000000       0.00000000          1
H         0.26603394       4.56003816       3.49021022         0.00000000       0.00000000       0.00000000          1
H         1.02603562       2.98261166       1.31342517         0.00000000       0.00000000       0.00000000          1
H         3.12072758       1.91228793       2.82038860         0.00000000       0.00000000       0.00000000          1
H         2.36072528       3.48971379       4.99717804         0.00000000       0.00000000       0.00000000          1
6
pbc=[F, F, F] list_num_par=6 energy=-1.26974174 iter=20000 frozen=false Lattice="15.00000000 0.00000000 0.00000000 0.00000000 15.00000000 0.00000000 0.00000000 0.00000000 15.00000000" energy_frozen_part=0.00000000 Properties=species:S:1:pos:R:3:velocities:R:3:Z:I:1
H         2.88479257       4.68017725       2.52485136         0.00000000       0.00000000       0.00000000          1
H         0.50196390       1.79213810       3.78575910         0.00000000       0.00000000       0.00000000          1
H         0.26602668       4.56003729       3.49021201         0.00000000       0.00000000       0.00000000          1
H         1.02603342       2.98260013       1.31343537         0.00000000       0.00000000       0.00000000          1
H         3.12073238       1.91227899       2.82040098         0.00000000       0.00000000       0.00000000          1
H         2.36071836       3.48971505       4.99718299         0.00000000       0.00000000       0.00000000          1
6
pbc=[F, F, F] list_num_par=6 energy=-1.26974174 iter=20000 frozen=false Lattice="15.00000000 0.00000000 0.00000000 0.00000000 15.00000000 0.00000000 0.00000000 0.00000000 15.00000000" energy_frozen_part=0.00000000 Properties=species:S:1:pos:R:3:velocities:R:3:Z:I:1
H         2.88488567       4.68011451       2.52464739         0.00000000       0.00000000       0.00000000          1
H         0.50195059       1.79227901       3.78583662         0.00000000       0.00000000       0.00000000          1
H         0.26614056       4.56016574       3.49006599         0.00000000       0.00000000       0.00000000          1
H         1.02603439       2.98251639       1.31339921         0.00000000       0.00000000       0.00000000          1
H         3.12070181       1.91223087       2.82042133         0.00000000       0.00000000       0.00000000          1
H         2.36080562       3.48986979       4.99708948         0.00000000       0.00000000       0.00000000          1
6
pbc=[F, F, F] list_num_par=6 energy=-1.26974174 iter=20000 frozen=false Lattice="15.00000000 0.00000000 0.00000000 0.00000000 15.00000000 0.00000000 0.00000000 0.00000000 15.00000000" energy_frozen_part=0.00000000 Properties=species:S:1:pos:R:3:velocities:R:3:Z:I:1
H         2.89615978       4.68805546       2.55089070         0.00000000       0.00000000       0.00000000          1
H         0.50629621       1.78720636       3.76835254         0.00000000       0.00000000       0.00000000          1
H         0.27278771       4.55831168       3.50241448         0.00000000       0.00000000       0.00000000          1
H         1.04255443       3.00480231       1.31189889         0.00000000       0.00000000       0.00000000          1
H         3.12966749       1.91694090       2.81682640         0.00000000       0.00000000       0.00000000          1
H         2.35990425       3.47045384       5.00734104         0.00000000       0.00000000       0.00000000          1
6
pbc=[F, F, F] list_num_par=6 energy=-1.26974174 iter=20000 frozen=false Lattice="15.00000000 0.00000000 0.00000000 0.00000000 15.00000000 0.00000000 0.00000000 0.00000000 15.00000000" energy_frozen_part=0.00000000 Properties=species:S:1:pos:R:3:velocities:R:3:Z:I:1
H         2.89613997       4.68806056       2.55089708         0.00000000       0.00000000       0.00000000          1
H         0.50628767       1.78719327       3.76833466         0.00000000       0.00000000       0.00000000          1
H         0.27277817       4.55830521       3.50242630         0.00000000       0.00000000       0.00000000          1
H         1.04253826       3.00482176       1.31189192         0.00000000       0.00000000       0.00000000          1
H         3.12964688       1.91694392       2.81680392         0.00000000       0.00000000       0.00000000          1
H         2.35989815       3.47043222       5.00733735         0.00000000       0.00000000       0.00000000          1
6
pbc=[F, F, F] list_num_par=6 energy=-1.26974174 iter=20000 frozen=false Lattice="15.00000000 0.00000000 0.00000000 0.00000000 15.00000000 0.00000000 0.00000000 0.00000000 15.00000000" energy_frozen_part=0.00000000 Properties=species:S:1:pos:R:3:velocities:R:3:Z:I:1
H         2.89613321       4.68816300       2.55093707         0.00000000       0.00000000       0.00000000          1
H         0.50643165       1.78712533       3.76826289         0.00000000       0.00000000       0.00000000          1
H         0.27275252       4.55822588       3.50240189         0.00000000       0.00000000       0.00000000          1
H         1.04265659       3.00482987       1.31185873         0.00000000       0.00000000       0.00000000          1
H         3.12980932       1.91706221       2.81679680         0.00000000       0.00000000       0.00000000          1
H         2.35989609       3.47045774       5.00734842         0.00000000       0.00000000       0.00000000          1
6
pbc=[F, F, F] list_num_par=6 energy=-1.26974174 iter=20000 frozen=false Lattice="15.00000000 0.00000000 0.00000000 0.00000000 15.00000000 0.00000000 0.00000000 0.00000000 15.00000000" energy_frozen_part=0.00000000 Properties=species:S:1:pos:R:3:velocities:R:3:Z:I:1
H         2.89602212       4.68824830       2.55118723         0.00000000       0.00000000       0.00000000          1
H         0.50623769       1.78718695       3.76826920         0.00000000       0.00000000       0.00000000          1
H         0.27264364       4.55831503       3.50264202         0.00000000       0.00000000       0.00000000          1
H         1.04249543       3.00507792       1.31195923         0.00000000       0.00000000       0.00000000          1
H         3.12961639       1.91712175       2.81681495         0.00000000       0.00000000       0.00000000          1
H         2.35976260       3.47035800       5.00749335         0.00000000       0.00000000       0.00000000          1
6
pbc=[F, F, F] list_num_par=6 energy=-1.26974174 iter=20000 frozen=false Lattice="15.00000000 0.00000000 0.00000000 0.00000000 15.00000000 0.00000000 0.00000000 0.00000000 15.00000000" energy_frozen_part=0.00000000 Properties=species:S:1:pos:R:3:velocities:R:3:Z:I:1
H         2.89478242       4.68944088       2.54923741         0.00000000       0.00000000       0.00000000          1
H         0.50758947       1.78662930       3.76725481         0.00000000       0.00000000       0.00000000          1
H         0.27098701       4.55727057       3.49925391         0.00000000       0.00000000       0.00000000          1
H         1.04391271       3.00316121       1.31028443         0.00000000       0.00000000       0.00000000          1
H         3.13138293       1.91879527       2.81723109         0.00000000       0.00000000       0.00000000          1
H         2.35846116       3.47290903       5.00620580         0.00000000       0.00000000       0.00000000          1
6
pbc=[F, F, F] list_num_par=6 energy=-1.26974174 iter=20000 frozen=false Lattice="15.00000000 0.00000000 0.00000000 0.00000000 15.00000000 0.00000000 0.00000000 0.00000000 15.00000000" energy_frozen_part=0.00000000 Properties=species:S:1:pos:R:3:velocities:R:3:Z:I:1
H         2.89479444       4.68944765       2.54924388         0.00000000       0.00000000       0.00000000          1
H         0.50760161       1.78663212       3.76723215         0.00000000       0.00000000       0.00000000          1
H         0.27100063       4.55727833       3.49926003         0.00000000       0.00000000       0.00000000          1
H         1.04391428       3.00317611       1.31027573         0.00000000       0.00000000       0.00000000          1
H         3.13139223       1.91880143       2.81721357         0.00000000       0.00000000       0.00000000          1
H         2.35847379       3.47290118       5.00620218         0.00000000       0.00000000       0.00000000          1
6
pbc=[F, F, F] list_num_par=6 energy=-1.26974174 iter=20000 frozen=false Lattice="15.00000000 0.00000000 0.00000000 0.00000000 15.00000000 0.00000000 0.00000000 0.00000000 15.00000000" energy_frozen_part=0.00000000 Properties=species:S:1:pos:R:3:velocities:R:3:Z:I:1
H         2.89617629       4.68816101       2.55090272         0.00000000       0.00000000       0.00000000          1
H         0.50641271       1.78718836       3.76826845         0.00000000       0.00000000       0.00000000          1
H         0.27280464       4.55829031       3.50240492         0.00000000       0.00000000       0.00000000          1
H         1.04263906       3.00487719       1.31185232         0.00000000       0.00000000       0.00000000          1
H         3.12977869       1.91705402       2.81676425         0.00000000       0.00000000       0.00000000          1
H         2.35995193       3.47047870       5.00731991         0.00000000       0.00000000       0.00000000          1
6
pbc=[F, F, F] list_num_par=6 energy=-1.26974174 iter=20000 frozen=false Lattice="15.00000000 0.00000000 0.00000000 0.00000000 15.00000000 0.00000000 0.00000000 0.00000000 15.00000000" energy_frozen_part=0.00000000 Properties=species:S:1:pos:R:3:velocities:R:3:Z:I:1
H         2.88659123       4.67747176       2.52419632         0.00000000       0.00000000       0.00000000          1
H         0.49821639       1.79344118       3.78381063         0.00000000       0.00000000       0.00000000          1
H         0.26746248       4.56186581       3.48912630         0.00000000       0.00000000       0.00000000          1
H         1.02486921       2.98373669       1.31194807         0.00000000       0.00000000       0.00000000          1
H         3.11734782       1.90904377       2.81888228         0.00000000       0.00000000       0.00000000          1
H         2.35994127       3.48716747       4.99606046         0.00000000       0.00000000       0.00000000          1
6
pbc=[F, F, F] list_num_par=6 energy=-1.26974174 iter=20000 frozen=false Lattice="15.00000000 0.00000000 0.00000000 0.00000000 15.00000000 0.00000000 0.00000000 0.00000000 15.00000000" energy_frozen_part=0.00000000 Properties=species:S:1:pos:R:3:velocities:R:3:Z:I:1
H         2.89478694       4.68945493       2.54925899         0.00000000       0.00000000       0.00000000          1
H         0.50760931       1.78661751       3.76723331         0.00000000       0.00000000       0.00000000          1
H         0.27098975       4.55726095       3.49927077         0.00000000       0.00000000       0.00000000          1
H         1.04392428       3.00318123       1.31027773         0.00000000       0.00000000       0.00000000          1
H         3.13139968       1.91880900       2.81721890         0.00000000       0.00000000       0.00000000          1
H         2.35846259       3.47289657       5.00621278         0.00000000       0.00000000       0.00000000          1
6
pbc=[F, F, F] list_num_par=6 energy=-1.26974174 iter=20000 frozen=false Lattice="15.00000000 0.00000000 0.00000000 0.00000000 15.00000000 0.00000000 0.00000000 0.00000000 15.00000000" energy_frozen_part=0.00000000 Properties=species:S:1:pos:R:3:velocities:R:3:Z:I:1
H         2.89593689       4.68832920       2.55126390         0.00000000       0.00000000       0.00000000          1
H         0.50624770       1.78714387       3.76824776         0.00000000       0.00000000       0.00000000          1