6
pbc=[F, F, F] list_num_par=6 energy=19.12529129 iter=9 frozen=false Lattice="15.00000000 0.00000000 0.00000000 0.00000000 15.00000000 0.00000000 0.00000000 0.00000000 15.00000000" energy_frozen_part=0.00000000 Properties=species:S:1:pos:R:3:velocities:R:3:Z:I:1
H         5.61167263      11.27335171      10.85678315         0.00000000       0.00000000       0.00000000          1
H        14.41658756      14.06938864       9.72631410         0.00000000       0.00000000       0.00000000          1
H         5.27295321       6.54701652      14.83835822         0.00000000       0.00000000       0.00000000          1
H         3.94260188      11.99642662       3.84350903         0.00000000       0.00000000       0.00000000          1
H         6.58515432      13.89032702      14.29131158         0.00000000       0.00000000       0.00000000          1
H         3.81473159      12.59980668       2.16370503         0.00000000       0.00000000       0.00000000          1
6
pbc=[F, F, F] list_num_par=6 energy=1.12165463 iter=19 frozen=false Lattice="15.00000000 0.00000000 0.00000000 0.00000000 15.00000000 0.00000000 0.00000000 0.00000000 15.00000000" energy_frozen_part=0.00000000 Properties=species:S:1:pos:R:3:velocities:R:3:Z:I:1
H         5.54847999       1.98894919      13.14636153         0.00000000       0.00000000       0.00000000          1
H         8.13241676       3.48012572       3.17887097         0.00000000       0.00000000       0.00000000          1
H         6.89107131       1.78847771       3.78359429         0.00000000       0.00000000       0.00000000          1
H         8.63181247       9.04482870       8.02063991         0.00000000       0.00000000       0.00000000          1
H         1.26711086       1.60410155       5.96392599         0.00000000       0.00000000       0.00000000          1
H         0.20294355       4.55870074      11.81350067         0.00000000       0.00000000       0.00000000          1
6
pbc=[F, F, F] list_num_par=6 energy=0.00306300 iter=29 frozen=false Lattice="15.00000000 0.00000000 0.00000000 0.00000000 15.00000000 0.00000000 0.00000000 0.00000000 15.00000000" energy_frozen_part=0.00000000 Properties=species:S:1:pos:R:3:velocities:R:3:Z:I:1
H         0.93112575      14.80731602       1.28373602         0.00000000       0.00000000       0.00000000          1
H         6.99488796      10.94228444      10.77279291         0.00000000       0.00000000       0.00000000          1
H        10.12209145       3.99134770      14.31383216         0.00000000       0.00000000       0.00000000          1
H         9.54317552       9.95037820       3.06132531         0.00000000       0.00000000       0.00000000          1
H         7.35918196       5.94339141       3.36907664         0.00000000       0.00000000       0.00000000          1
H         7.54149969       8.61399384       2.84263603         0.00000000       0.00000000       0.00000000          1
6
pbc=[F, F, F] list_num_par=6 energy=-0.00365126 iter=39 frozen=false Lattice="15.00000000 0.00000000 0.00000000 0.00000000 15.00000000 0.00000000 0.00000000 0.00000000 15.00000000" energy_frozen_part=0.00000000 Properties=species:S:1:pos:R:3:velocities:R:3:Z:I:1
H         0.83386880       5.35282475       7.02154264         0.00000000       0.00000000       0.00000000          1
H         7.71290407      14.14005473       8.84481573         0.00000000       0.00000000       0.00000000          1
H         9.35587605      13.30694645      14.45114376         0.00000000       0.00000000       0.00000000          1
H        13.93450184       9.44381237       8.99119122         0.00000000       0.00000000       0.00000000          1
H        10.68660264       5.75785515       3.43206985         0.00000000       0.00000000       0.00000000          1
H         8.76208626       0.90713335       9.24797761         0.00000000       0.00000000       0.00000000          1
6
pbc=[F, F, F] list_num_par=6 energy=-0.00605854 iter=49 frozen=false Lattice="15.00000000 0.00000000 0.00000000 0.00000000 15.00000000 0.00000000 0.00000000 0.00000000 15.00000000" energy_frozen_part=0.00000000 Properties=species:S:1:pos:R:3:velocities:R:3:Z:I:1
H         1.95813377       2.37660372       6.00717718         0.00000000       0.00000000       0.00000000          1
H        14.03106955       9.57465064       1.29633362         0.00000000       0.00000000       0.00000000          1
H         5.63013644       9.47141530      14.20946814         0.00000000       0.00000000       0.00000000          1
H        11.41984443       3.95265792       3.69687048         0.00000000       0.00000000       0.00000000          1
H         4.06821751      11.67394151       9.79910055         0.00000000       0.00000000       0.00000000          1
H        14.40353378       0.65420961      11.62111666         0.00000000       0.00000000       0.00000000          1
6
pbc=[F, F, F] list_num_par=6 energy=-0.00887296 iter=59 frozen=false Lattice="15.00000000 0.00000000 0.00000000 0.00000000 15.00000000 0.00000000 0.00000000 0.00000000 15.00000000" energy_frozen_part=0.00000000 Properties=species:S:1:pos:R:3:velocities:R:3:Z:I:1
H        11.14110345       5.52035652       2.47984568         0.00000000       0.00000000       0.00000000          1
H        13.42405742       9.61941261       8.70039651         0.00000000       0.00000000       0.00000000          1
H         1.64259182       7.38263542       1.52635037         0.00000000       0.00000000       0.00000000          1
H        13.90149792       0.89738933       4.50532557         0.00000000       0.00000000       0.00000000          1
H         2.62558950       3.52015144       8.86239673         0.00000000       0.00000000       0.00000000          1
H         6.72863641       7.29989172       5.49509530         0.00000000       0.00000000       0.00000000          1
6
pbc=[F, F, F] list_num_par=6 energy=-0.01200425 iter=69 frozen=false Lattice="15.00000000 0.00000000 0.00000000 0.00000000 15.00000000 0.00000000 0.00000000 0.00000000 15.00000000" energy_frozen_part=0.00000000 Properties=species:S:1:pos:R:3:velocities:R:3:Z:I:1
H         7.54410325       6.88527874      13.29251508         0.00000000       0.00000000       0.00000000          1
H         7.26643687      11.28622189       7.26536565         0.00000000       0.00000000       0.00000000          1
H         6.72151792      13.62408976       2.74868792         0.00000000       0.00000000       0.00000000          1
H         0.09367330      10.76921294       3.12123084         0.00000000       0.00000000       0.00000000          1
H         9.36817383       1.23927582       4.92306350         0.00000000       0.00000000       0.00000000          1
H        10.52110287      11.37446423      12.30884849         0.00000000       0.00000000       0.00000000          1
6
pbc=[F, F, F] list_num_par=6 energy=-0.01347436 iter=79 frozen=false Lattice="15.00000000 0.00000000 0.00000000 0.00000000 15.00000000 0.00000000 0.00000000 0.00000000 15.00000000" energy_frozen_part=0.00000000 Properties=species:S:1:pos:R:3:velocities:R:3:Z:I:1
H        12.08287405       0.05508072       1.99682886         0.00000000       0.00000000       0.00000000          1
H         1.99335993       0.62533527       6.63728535         0.00000000       0.00000000       0.00000000          1
H         4.75237352      10.60548330      14.22592628         0.00000000       0.00000000       0.00000000          1
H        10.22855575       6.21973151       1.74846592         0.00000000       0.00000000       0.00000000          1
H         7.22466621       9.31168338       4.21727184         0.00000000       0.00000000       0.00000000          1
H        12.10044646       0.36695648       7.04193989         0.00000000       0.00000000       0.00000000          1
6
pbc=[F, F, F] list_num_par=6 energy=-0.01567978 iter=89 frozen=false Lattice="15.00000000 0.00000000 0.00000000 0.00000000 15.00000000 0.00000000 0.00000000 0.00000000 15.00000000" energy_frozen_part=0.00000000 Properties=species:S:1:pos:R:3:velocities:R:3:Z:I:1
H        10.66578502       3.13209212       6.47895934         0.00000000       0.00000000       0.00000000          1
H         7.81159733       5.90842058      11.87146632         0.00000000       0.00000000       0.00000000          1
H         1.09619978       0.89971579       5.27358069         0.00000000       0.00000000       0.00000000          1
H         2.96426283       6.16419433       9.50155409         0.00000000       0.00000000       0.00000000          1
H         8.09895518      14.99723410       5.20163643         0.00000000       0.00000000       0.00000000          1
H         5.28194406       0.58149845       7.97586040         0.00000000       0.00000000       0.00000000          1
6
pbc=[F, F, F] list_num_par=6 energy=-0.01894835 iter=99 frozen=false Lattice="15.00000000 0.00000000 0.00000000 0.00000000 15.00000000 0.00000000 0.00000000 0.00000000 15.00000000" energy_frozen_part=0.00000000 Properties=species:S:1:pos:R:3:velocities:R:3:Z:I:1
H         0.79500757      13.85133160       1.64484048         0.00000000       0.00000000       0.00000000          1
H        14.39225847      13.94632657       9.43013730         0.00000000       0.00000000       0.00000000          1
H         3.77008405       9.79530246       6.19417771         0.00000000       0.00000000       0.00000000          1
H        14.41754844       1.64537811      10.28952675         0.00000000       0.00000000       0.00000000          1
H        11.49176658       2.88731276      14.88048014         0.00000000       0.00000000       0.00000000          1
H        13.31679609       9.84213567      10.17743289         0.00000000       0.00000000       0.00000000          1
6
pbc=[F, F, F] list_num_par=6 energy=-0.02352061 iter=109 frozen=false Lattice="15.00000000 0.00000000 0.00000000 0.00000000 15.00000000 0.00000000 0.00000000 0.00000000 15.00000000" energy_frozen_part=0.00000000 Properties=species:S:1:pos:R:3:velocities:R:3:Z:I:1
H        10.58685439       8.84442397       5.19097291         0.00000000       0.00000000       0.00000000          1
H         4.76126571       1.13288797       5.04253485         0.00000000       0.00000000       0.00000000          1
H         6.34637317       7.15569942       6.70968300         0.00000000       0.00000000       0.00000000          1
H         0.53635337       8.83268178       1.70126013         0.00000000       0.00000000       0.00000000          1
H         7.50925208       2.58097991      10.93616639         0.00000000       0.00000000       0.00000000          1
H         6.69185295       0.66565127       1.02616991         0.00000000       0.00000000       0.00000000          1
6
pbc=[F, F, F] list_num_par=6 energy=-0.02729046 iter=119 frozen=false Lattice="15.00000000 0.00000000 0.00000000 0.00000000 15.00000000 0.00000000 0.00000000 0.00000000 15.00000000" energy_frozen_part=0.00000000 Properties=species:S:1:pos:R:3:velocities:R:3:Z:I:1
H         2.92780912       4.90425318       5.07968920         0.00000000       0.00000000       0.00000000          1
H        12.38901646       9.22879417       0.54590123         0.00000000       0.00000000       0.00000000          1
H         1.06023537       5.85793138       1.76236055         0.00000000       0.00000000       0.00000000          1
H        14.45854332       0.99509998       4.06206033         0.00000000       0.00000000       0.00000000          1
H         5.45486327       0.77579512       0.08536847         0.00000000       0.00000000       0.00000000          1
H         5.40868398       9.43347130       9.66025930         0.00000000       0.00000000       0.00000000          1
6
pbc=[F, F, F] list_num_par=6 energy=-0.03220341 iter=129 frozen=false Lattice="15.00000000 0.00000000 0.00000000 0.00000000 15.00000000 0.00000000 0.00000000 0.00000000 15.00000000" energy_frozen_part=0.00000000 Properties=species:S:1:pos:R:3:velocities:R:3:Z:I:1
H         6.65116120       1.82811516       7.75327219         0.00000000       0.00000000       0.00000000          1
H        12.10468943       3.50732000      14.90781671         0.00000000       0.00000000       0.00000000          1
H         1.55289157       1.04469807       3.38280212         0.00000000       0.00000000       0.00000000          1
H         2.80753515      12.50317821      13.78762082         0.00000000       0.00000000       0.00000000          1
H         6.39651289       8.87722845       2.90723206         0.00000000       0.00000000       0.00000000          1
H         1.73036589       4.85917759       3.23582555         0.00000000       0.00000000       0.00000000          1
6
pbc=[F, F, F] list_num_par=6 energy=-0.03944506 iter=139 frozen=false Lattice="15.00000000 0.00000000 0.00000000 0.00000000 15.00000000 0.00000000 0.00000000 0.00000000 15.00000000" energy_frozen_part=0.00000000 Properties=species:S:1:pos:R:3:velocities:R:3:Z:I:1
H        14.52659122       6.18433242       8.71272984         0.00000000       0.00000000       0.00000000          1
H        11.68589228      10.19191390       2.30369171         0.00000000       0.00000000       0.00000000          1
H        12.32671831      13.46958655       0.87465047         0.00000000       0.00000000       0.00000000          1
H         9.50096546       2.14461060       6.75548964         0.00000000       0.00000000       0.00000000          1
H         2.04553246       3.25025590       4.60203626         0.00000000       0.00000000       0.00000000          1
H         8.12377661      13.71208467      11.54652115         0.00000000       0.00000000       0.00000000          1
6
pbc=[F, F, F] list_num_par=6 energy=-0.04580221 iter=149 frozen=false Lattice="15.00000000 0.00000000 0.00000000 0.00000000 15.00000000 0.00000000 0.00000000 0.00000000 15.00000000" energy_frozen_part=0.00000000 Properties=species:S:1:pos:R:3:velocities:R:3:Z:I:1
H         8.44554611      11.19177489       5.92832482         0.00000000       0.00000000       0.00000000          1
H         4.32971369       2.23295667      13.78848399         0.00000000       0.00000000       0.00000000          1
H         6.61891300      10.45451423       7.50317988         0.00000000       0.00000000       0.00000000          1
H         3.16903854       1.61231424       2.30940256         0.00000000       0.00000000       0.00000000          1
H         3.31455454       2.57567926      10.04666757         0.00000000       0.00000000       0.00000000          1
H        14.27747859       3.86364003       4.78368222         0.00000000       0.00000000       0.00000000          1
6
pbc=[F, F, F] list_num_par=6 energy=-0.05099419 iter=159 frozen=false Lattice="15.00000000 0.00000000 0.00000000 0.00000000 15.00000000 0.00000000 0.00000000 0.00000000 15.00000000" energy_frozen_part=0.00000000 Properties=species:S:1:pos:R:3:velocities:R:3:Z:I:1
H        10.16728831      13.95046356       2.43331584         0.00000000       0.00000000       0.00000000          1
H         9.61079605      12.74143506      10.16912226         0.00000000       0.00000000       0.00000000          1
H         2.64645189      11.51133918       6.57957196         0.00000000       0.00000000       0.00000000          1
H         1.86604395      13.96847740      10.37161585         0.00000000       0.00000000       0.00000000          1
H        10.63893792      10.84578971       0.67583503         0.00000000       0.00000000       0.00000000          1
H         0.69812955       1.39162220       0.64263571         0.00000000       0.00000000       0.00000000          1
6
pbc=[F, F, F] list_num_par=6 energy=-0.05579783 iter=169 frozen=false Lattice="15.00000000 0.00000000 0.00000000 0.00000000 15.00000000 0.00000000 0.00000000 0.00000000 15.00000000" energy_frozen_part=0.00000000 Properties=species:S:1:pos:R:3:velocities:R:3:Z:I:1
H        14.98895137      11.32498817       0.70138276         0.00000000       0.00000000       0.00000000          1
H         5.29725967      12.07966359       7.79280426         0.00000000       0.00000000       0.00000000          1
H        14.37991209      10.70819717       7.58179959         0.00000000       0.00000000       0.00000000          1
H        12.53554020       6.03061724       7.16706053         0.00000000       0.00000000       0.00000000          1
H        13.04128719       3.12960807      13.12370734         0.00000000       0.00000000       0.00000000          1
H        13.20365280       9.54710729       3.65001438         0.00000000       0.00000000       0.00000000          1
6
pbc=[F, F, F] list_num_par=6 energy=-0.06564213 iter=179 frozen=false Lattice="15.00000000 0.00000000 0.00000000 0.00000000 15.00000000 0.00000000 0.00000000 0.00000000 15.00000000" energy_frozen_part=0.00000000 Properties=species:S:1:pos:R:3:velocities:R:3:Z:I:1
H         7.71082301      12.19159957       7.58415705         0.00000000       0.00000000       0.00000000          1
H         1.66551490       2.11367429       8.37062971         0.00000000       0.00000000       0.00000000          1
H         1.88270881      10.74225971      11.55148301         0.00000000       0.00000000       0.00000000          1
H         6.84088729      12.38516725       2.74960420         0.00000000       0.00000000       0.00000000          1
H        14.86244351       5.24169580       1.21137623         0.00000000       0.00000000       0.00000000          1
H         5.52688555       9.39898890       3.67806754         0.00000000       0.00000000       0.00000000          1
6
pbc=[F, F, F] list_num_par=6 energy=-0.07007214 iter=189 frozen=false Lattice="15.00000000 0.00000000 0.00000000 0.00000000 15.00000000 0.00000000 0.00000000 0.00000000 15.00000000" energy_frozen_part=0.00000000 Properties=species:S:1:pos:R:3:velocities:R:3:Z:I:1
H         3.27287730       6.46891725      10.00847635         0.00000000       0.00000000       0.00000000          1
H         3.44633033      12.79824954       7.15434887         0.00000000       0.00000000       0.00000000          1
H         3.94883546      10.35175242       3.45992631         0.00000000       0.00000000       0.00000000          1
H         2.77485142      11.70777682      10.34066915         0.00000000       0.00000000       0.00000000          1
H        14.81432512       3.54011694       6.18601705         0.00000000       0.00000000       0.00000000          1
H         8.43849593       4.87570163       2.99037758         0.00000000       0.00000000       0.00000000          1
6
pbc=[F, F, F] list_num_par=6 energy=-0.07779904 iter=199 frozen=false Lattice="15.00000000 0.00000000 0.00000000 0.00000000 15.00000000 0.00000000 0.00000000 0.00000000 15.00000000" energy_frozen_part=0.00000000 Properties=species:S:1:pos:R:3:velocities:R:3:Z:I:1
H         1.52646251       3.92559550       3.33719579         0.00000000       0.00000000       0.00000000          1
H         6.36693375       6.84552048       5.88696139         0.00000000       0.00000000       0.00000000          1
H         0.54404748       7.11186285       8.32763769         0.00000000       0.00000000       0.00000000          1
H        12.92706726      14.58241706      11.79765302         0.00000000       0.00000000       0.00000000          1
H         1.78093561       0.71020544       3.31423511         0.00000000       0.00000000       0.00000000          1
H         2.11965569      11.77786739      10.33180263         0.00000000       0.00000000       0.00000000          1
6
pbc=[F, F, F] list_num_par=6 energy=-0.07999541 iter=209 frozen=false Lattice="15.00000000 0.00000000 0.00000000 0.00000000 15.00000000 0.00000000 0.00000000 0.00000000 15.00000000" energy_frozen_part=0.00000000 Properties=species:S:1:pos:R:3:velocities:R:3:Z:I:1
H         5.08342184       4.89885667       8.77789110         0.00000000       0.00000000       0.00000000          1
H        13.95482555      10.71503568       5.06624221         0.00000000       0.00000000       0.00000000          1
H        12.33126707       0.84539443       2.27841124         0.00000000       0.00000000       0.00000000          1
H        10.02198520       8.21432996      12.63955733         0.00000000       0.00000000       0.00000000          1
H        13.15444991      13.39645469       0.80824450         0.00000000       0.00000000       0.00000000          1
H         2.94639229       3.17133705      10.34238527         0.00000000       0.00000000       0.00000000          1
6
pbc=[F, F, F] list_num_par=6 energy=-0.08517604 iter=219 frozen=false Lattice="15.00000000 0.00000000 0.00000000 0.00000000 15.00000000 0.00000000 0.00000000 0.00000000 15.00000000" energy_frozen_part=0.00000000 Properties=species:S:1:pos:R:3:velocities:R:3:Z:I:1
H         7.47634406       7.17513310      10.31215165         0.00000000       0.00000000       0.00000000          1
H         5.89807342      11.27245287      10.25247119         0.00000000       0.00000000       0.00000000          1
H         9.34618319       9.59274603       0.65889489         0.00000000       0.00000000       0.00000000          1
H        14.31061375      14.89696986      11.78201363         0.00000000       0.00000000       0.00000000          1
H         5.85710772       5.69387034       7.96981024         0.00000000       0.00000000       0.00000000          1
H        13.90095942       6.25720558      13.29141069         0.00000000       0.00000000       0.00000000          1
6
pbc=[F, F, F] list_num_par=6 energy=-0.08858455 iter=229 frozen=false Lattice="15.00000000 0.00000000 0.00000000 0.00000000 15.00000000 0.00000000 0.00000000 0.00000000 15.00000000" energy_frozen_part=0.00000000 Properties=species:S:1:pos:R:3:velocities:R:3:Z:I:1
H         5.37101886       2.66775474       7.40690894         0.00000000       0.00000000       0.00000000          1
H         5.04837867      13.01840401       4.50620506         0.00000000       0.00000000       0.00000000          1
H        12.61275999       4.21594124       0.60974964         0.00000000       0.00000000       0.00000000          1
H         4.08518130       3.59910709      12.93162817         0.00000000       0.00000000       0.00000000          1
H         6.57305897       0.18724910       5.85639876         0.00000000       0.00000000       0.00000000          1
H         3.28982854       8.90119796       4.13969323         0.00000000       0.00000000       0.00000000          1
6
pbc=[F, F, F] list_num_par=6 energy=-0.09244145 iter=239 frozen=false Lattice="15.00000000 0.00000000 0.00000000 0.00000000 15.00000000 0.00000000 0.00000000 0.00000000 15.00000000" energy_frozen_part=0.00000000 Properties=species:S:1:pos:R:3:velocities:R:3:Z:I:1
H        12.29731430       9.19165660       2.64082617         0.00000000       0.00000000       0.00000000          1
H         5.29772101       6.06002403      12.37684896         0.00000000       0.00000000       0.00000000          1
H        11.38514535       4.99347504       1.05788408         0.00000000       0.00000000       0.00000000          1
H        13.75560019       0.80874926       0.85805332         0.00000000       0.00000000       0.00000000          1
H        10.33880669      10.25224736       8.41675059         0.00000000       0.00000000       0.00000000          1
H        11.83965415      12.09312574       1.40086322         0.00000000       0.00000000       0.00000000          1
6
pbc=[F, F, F] list_num_par=6 energy=-0.09478099 iter=249 frozen=false Lattice="15.00000000 0.00000000 0.00000000 0.00000000 15.00000000 0.00000000 0.00000000 0.00000000 15.00000000" energy_frozen_part=0.00000000 Properties=species:S:1:pos:R:3:velocities:R:3:Z:I:1
H        11.40082769       4.31911998      14.25738568         0.00000000       0.00000000       0.00000000          1
H         0.38435976       9.57584763      10.16267989         0.00000000       0.00000000       0.00000000          1
H         2.50254762       1.04698878       9.50835473         0.00000000       0.00000000       0.00000000          1
H        10.76245100      11.96436434       6.60203774         0.00000000       0.00000000       0.00000000          1
H         5.15708927       1.36340829      10.72925694         0.00000000       0.00000000       0.00000000          1
H        13.77072799       4.96997622       3.88124595         0.00000000       0.00000000       0.00000000          1
6
pbc=[F, F, F] list_num_par=6 energy=-0.09723086 iter=259 frozen=false Lattice="15.00000000 0.00000000 0.00000000 0.00000000 15.00000000 0.00000000 0.00000000 0.00000000 15.00000000" energy_frozen_part=0.00000000 Properties=species:S:1:pos:R:3:velocities:R:3:Z:I:1
H        13.49363110       8.93576867       1.44736178         0.00000000       0.00000000       0.00000000          1
H        11.13259761       9.36706194       9.91283773         0.00000000       0.00000000       0.00000000          1
H         1.58341231       9.84684993      14.14954711         0.00000000       0.00000000       0.00000000          1
H         3.96027456      10.18635280       0.77099572         0.00000000       0.00000000       0.00000000          1
H        11.36997726      10.27295934       2.94396274         0.00000000       0.00000000       0.00000000          1
H         3.52961407       3.27686825       0.07986294         0.00000000       0.00000000       0.00000000          1
6
pbc=[F, F, F] list_num_par=6 energy=-0.10126533 iter=269 frozen=false Lattice="15.00000000 0.00000000 0.00000000 0.00000000 15.00000000 0.00000000 0.00000000 0.00000000 15.00000000" energy_frozen_part=0.00000000 Properties=species:S:1:pos:R:3:velocities:R:3:Z:I:1
H         7.71425727       7.15936584      14.50254130         0.00000000       0.00000000       0.00000000          1
H         5.32648945      14.21371243      13.55997717         0.00000000       0.00000000       0.00000000          1
H         3.99808088      13.40750884       1.19824109         0.00000000       0.00000000       0.00000000          1
H         9.23351072       8.93710061       6.89023855         0.00000000       0.00000000       0.00000000          1
H         7.84200823       1.68657428       3.44739135         0.00000000       0.00000000       0.00000000          1
H         7.96549850      13.96656596      12.76631382         0.00000000       0.00000000       0.00000000          1
6
pbc=[F, F, F] list_num_par=6 energy=-0.10537784 iter=279 frozen=false Lattice="15.00000000 0.00000000 0.00000000 0.00000000 15.00000000 0.00000000 0.00000000 0.00000000 15.00000000" energy_frozen_part=0.00000000 Properties=species:S:1:pos:R:3:velocities:R:3:Z:I:1
H         6.58941418       2.37715926      12.69702347         0.00000000       0.00000000       0.00000000          1
H        12.50266680      10.61565144       8.46842618         0.00000000       0.00000000       0.00000000          1
H        14.27285694      13.64429355       2.03991561         0.00000000       0.00000000       0.00000000          1
H         8.17821914       4.50484625       3.96587639         0.00000000       0.00000000       0.00000000          1
H        12.46916279       0.38796136       3.72350420         0.00000000       0.00000000       0.00000000          1
H         8.23701380       4.43461434       6.77112934         0.00000000       0.00000000       0.00000000          1
6
pbc=[F, F, F] list_num_par=6 energy=-0.10916263 iter=289 frozen=false Lattice="15.00000000 0.00000000 0.00000000 0.00000000 15.00000000 0.00000000 0.00000000 0.00000000 15.00000000" energy_frozen_part=0.00000000 Properties=species:S:1:pos:R:3:velocities:R:3:Z:I:1
H         1.48773283      13.64847323       8.81840665         0.00000000       0.00000000       0.00000000          1
H         6.04796902      12.76641160       5.72478790         0.00000000       0.00000000       0.00000000          1
H         1.30278050       3.43268315       5.40497777         0.00000000       0.00000000       0.00000000          1
H         6.27754908       3.83209452       1.69109011         0.00000000       0.00000000       0.00000000          1
H         6.25830229       2.08845621       3.87354472         0.00000000       0.00000000       0.00000000          1
H        13.63036473       0.71869207       2.14894717         0.00000000       0.00000000       0.00000000          1
6
pbc=[F, F, F] list_num_par=6 energy=-0.11210725 iter=299 frozen=false Lattice="15.00000000 0.00000000 0.00000000 0.00000000 15.00000000 0.00000000 0.00000000 0.00000000 15.00000000" energy_frozen_part=0.00000000 Properties=species:S:1:pos:R:3:velocities:R:3:Z:I:1
H         0.44997924      13.30902805      11.40515591         0.00000000       0.00000000       0.00000000          1
H         2.36293756      13.20231945       9.63007986         0.00000000       0.00000000       0.00000000          1
H         5.36758700       1.36675920       3.10645289         0.00000000       0.00000000       0.00000000          1
H         8.35352293       3.63091951       2.32110482         0.00000000       0.00000000       0.00000000          1
H         8.87616442       0.91301165       6.71044999         0.00000000       0.00000000       0.00000000          1
H        12.07071617       6.67545166       6.97923234         0.00000000       0.00000000       0.00000000          1
6
pbc=[F, F, F] list_num_par=6 energy=-0.11811371 iter=309 frozen=false Lattice="15.00000000 0.00000000 0.00000000 0.00000000 15.00000000 0.00000000 0.00000000 0.00000000 15.00000000" energy_frozen_part=0.00000000 Properties=species:S:1:pos:R:3:velocities:R:3:Z:I:1
H         6.53207675       0.57684233       3.55838910         0.00000000       0.00000000       0.00000000          1
H         3.22505554       5.09548880      12.25042217         0.00000000       0.00000000       0.00000000          1