6
pbc=[F, F, F] list_num_par=6 energy=17.01641277 iter=9 frozen=false Lattice="15.00000000 0.00000000 0.00000000 0.00000000 15.00000000 0.00000000 0.00000000 0.00000000 15.00000000" energy_frozen_part=0.00000000 Properties=species:S:1:pos:R:3:velocities:R:3:Z:I:1
H         3.91157118       5.34934396       0.42423626         0.00000000       0.00000000       0.00000000          1
H        12.51323424       8.54337890      14.19698000         0.00000000       0.00000000       0.00000000          1
H         4.45226250       9.62659298       8.28527883         0.00000000       0.00000000       0.00000000          1
H         0.59695001       9.02436606       1.16990329         0.00000000       0.00000000       0.00000000          1
H         9.91685210      14.03199006      11.88047282         0.00000000       0.00000000       0.00000000          1
H         3.43623864       5.35676870       2.16616799         0.00000000       0.00000000       0.00000000          1
6
pbc=[F, F, F] list_num_par=6 energy=3.10215649 iter=19 frozen=false Lattice="15.00000000 0.00000000 0.00000000 0.00000000 15.00000000 0.00000000 0.00000000 0.00000000 15.00000000" energy_frozen_part=0.00000000 Properties=species:S:1:pos:R:3:velocities:R:3:Z:I:1
H         9.36347103       3.56997897      12.85735606         0.00000000       0.00000000       0.00000000          1
H         0.43582313       7.15706645      10.94908241         0.00000000       0.00000000       0.00000000          1
H         8.02753191       8.99637218      13.15511738         0.00000000       0.00000000       0.00000000          1
H         7.88591810       9.32505403       5.84278075         0.00000000       0.00000000       0.00000000          1
H        10.10155217       4.72063816      14.37880328         0.00000000       0.00000000       0.00000000          1
H         2.71855713       6.68143166       0.63806507         0.00000000       0.00000000       0.00000000          1
6
pbc=[F, F, F] list_num_par=6 energy=-0.00333910 iter=29 frozen=false Lattice="15.00000000 0.00000000 0.00000000 0.00000000 15.00000000 0.00000000 0.00000000 0.00000000 15.00000000" energy_frozen_part=0.00000000 Properties=species:S:1:pos:R:3:velocities:R:3:Z:I:1
H        12.75199615       1.73628133      13.81286383         0.00000000       0.00000000       0.00000000          1
H        13.54770882       3.33579250       4.96915585         0.00000000       0.00000000       0.00000000          1
H         9.93896822       8.44870480       0.07485866         0.00000000       0.00000000       0.00000000          1
H         0.22950492       4.91719071      12.73488542         0.00000000       0.00000000       0.00000000          1
H         1.38280558      12.41991411       5.48439258         0.00000000       0.00000000       0.00000000          1
H         9.09428217       0.71516279       7.66512708         0.00000000       0.00000000       0.00000000          1
6
pbc=[F, F, F] list_num_par=6 energy=-0.00942413 iter=39 frozen=false Lattice="15.00000000 0.00000000 0.00000000 0.00000000 15.00000000 0.00000000 0.00000000 0.00000000 15.00000000" energy_frozen_part=0.00000000 Properties=species:S:1:pos:R:3:velocities:R:3:Z:I:1
H         6.59404776       8.63627486       9.96530890         0.00000000       0.00000000       0.00000000          1
H         0.61625852       3.34093937       1.27241124         0.00000000       0.00000000       0.00000000          1
H         9.82817610       4.65607002      12.28329661         0.00000000       0.00000000       0.00000000          1
H         4.15302316       3.72965433      10.03650476         0.00000000       0.00000000       0.00000000          1
H         9.07261461      14.36740508       3.30918224         0.00000000       0.00000000       0.00000000          1
H        10.46204039      13.49727737      12.26754471         0.00000000       0.00000000       0.00000000          1
6
pbc=[F, F, F] list_num_par=6 energy=-0.01144654 iter=49 frozen=false Lattice="15.00000000 0.00000000 0.00000000 0.00000000 15.00000000 0.00000000 0.00000000 0.00000000 15.00000000" energy_frozen_part=0.00000000 Properties=species:S:1:pos:R:3:velocities:R:3:Z:I:1
H         5.05331656       4.03516879       1.12622856         0.00000000       0.00000000       0.00000000          1
H         7.86943124       2.54115312       9.37142799         0.00000000       0.00000000       0.00000000          1
H         0.60068003       6.88571685       2.71790646         0.00000000       0.00000000       0.00000000          1
H         8.02446656       8.47163410      14.53386425         0.00000000       0.00000000       0.00000000          1
H        14.11664413       5.10378247       9.02064664         0.00000000       0.00000000       0.00000000          1
H         4.76367794       3.98325519      13.56509778         0.00000000       0.00000000       0.00000000          1
6
pbc=[F, F, F] list_num_par=6 energy=-0.01456640 iter=59 frozen=false Lattice="15.00000000 0.00000000 0.00000000 0.00000000 15.00000000 0.00000000 0.00000000 0.00000000 15.00000000" energy_frozen_part=0.00000000 Properties=species:S:1:pos:R:3:velocities:R:3:Z:I:1
H         2.06126918       5.57460861      11.25611588         0.00000000       0.00000000       0.00000000          1
H         6.21981875       0.19845306      10.85286825         0.00000000       0.00000000       0.00000000          1
H        13.77043844       8.07837754       7.44357226         0.00000000       0.00000000       0.00000000          1
H         9.05523423      12.42510767       6.48624857         0.00000000       0.00000000       0.00000000          1
H        11.00699388       4.37216514       8.49986728         0.00000000       0.00000000       0.00000000          1
H        10.48218409       5.95472036       2.38375451         0.00000000       0.00000000       0.00000000          1
6
pbc=[F, F, F] list_num_par=6 energy=-0.01697412 iter=69 frozen=false Lattice="15.00000000 0.00000000 0.00000000 0.00000000 15.00000000 0.00000000 0.00000000 0.00000000 15.00000000" energy_frozen_part=0.00000000 Properties=species:S:1:pos:R:3:velocities:R:3:Z:I:1
H        12.12341618       7.78811214       8.09601608         0.00000000       0.00000000       0.00000000          1
H         1.04426119      13.67047354       0.67241362         0.00000000       0.00000000       0.00000000          1
H         5.77384587      14.64251402       7.99441213         0.00000000       0.00000000       0.00000000          1
H         8.61397743      13.77104970       0.78178038         0.00000000       0.00000000       0.00000000          1
H         7.00655666       6.81900295      11.44584852         0.00000000       0.00000000       0.00000000          1
H         6.09546228       4.15364893       8.11581903         0.00000000       0.00000000       0.00000000          1
6
pbc=[F, F, F] list_num_par=6 energy=-0.01877587 iter=79 frozen=false Lattice="15.00000000 0.00000000 0.00000000 0.00000000 15.00000000 0.00000000 0.00000000 0.00000000 15.00000000" energy_frozen_part=0.00000000 Properties=species:S:1:pos:R:3:velocities:R:3:Z:I:1
H         2.63220694      10.39593743      13.27794005         0.00000000       0.00000000       0.00000000          1
H         4.17390389       5.11725076      10.39403764         0.00000000       0.00000000       0.00000000          1
H         7.33902849       1.37322956       2.34007964         0.00000000       0.00000000       0.00000000          1
H         5.82255939      11.71106254       3.88526634         0.00000000       0.00000000       0.00000000          1
H         5.49670967       7.10739363       4.37670156         0.00000000       0.00000000       0.00000000          1
H         1.60851280       3.22514458       3.07249190         0.00000000       0.00000000       0.00000000          1
6
pbc=[F, F, F] list_num_par=6 energy=-0.02320263 iter=89 frozen=false Lattice="15.00000000 0.00000000 0.00000000 0.00000000 15.00000000 0.00000000 0.00000000 0.00000000 15.00000000" energy_frozen_part=0.00000000 Properties=species:S:1:pos:R:3:velocities:R:3:Z:I:1
H        14.65607908       9.27722347       0.33698796         0.00000000       0.00000000       0.00000000          1
H         6.66262603       4.81461421       2.32018344         0.00000000       0.00000000       0.00000000          1
H        12.49053425       5.94247227       1.34125868         0.00000000       0.00000000       0.00000000          1
H         3.28617668       3.60411085      14.55210024         0.00000000       0.00000000       0.00000000          1
H        12.45232514       0.34009731       5.02029407         0.00000000       0.00000000       0.00000000          1
H         4.27254253      10.41832665       6.44806801         0.00000000       0.00000000       0.00000000          1
6
pbc=[F, F, F] list_num_par=6 energy=-0.02974679 iter=99 frozen=false Lattice="15.00000000 0.00000000 0.00000000 0.00000000 15.00000000 0.00000000 0.00000000 0.00000000 15.00000000" energy_frozen_part=0.00000000 Properties=species:S:1:pos:R:3:velocities:R:3:Z:I:1
H         7.39629322      12.57763754       4.77713158         0.00000000       0.00000000       0.00000000          1
H         1.35895245       5.49114574       6.91986020         0.00000000       0.00000000       0.00000000          1
H        12.81475983      11.34930769       8.62312665         0.00000000       0.00000000       0.00000000          1
H         3.19035399      13.21061846       4.34592064         0.00000000       0.00000000       0.00000000          1
H         2.48128387       1.63599419      13.88797699         0.00000000       0.00000000       0.00000000          1
H        10.42289791       9.05084867       4.34852522         0.00000000       0.00000000       0.00000000          1
6
pbc=[F, F, F] list_num_par=6 energy=-0.03262608 iter=109 frozen=false Lattice="15.00000000 0.00000000 0.00000000 0.00000000 15.00000000 0.00000000 0.00000000 0.00000000 15.00000000" energy_frozen_part=0.00000000 Properties=species:S:1:pos:R:3:velocities:R:3:Z:I:1
H        11.01145239       7.94903906      12.98782756         0.00000000       0.00000000       0.00000000          1
H         1.85243640       5.62310442       2.54840875         0.00000000       0.00000000       0.00000000          1
H        10.32313880       3.03958049       9.77220822         0.00000000       0.00000000       0.00000000          1
H         0.64316437       1.03869249       6.95021273         0.00000000       0.00000000       0.00000000          1
H        13.28782340       4.36498650      12.73495737         0.00000000       0.00000000       0.00000000          1
H        13.21048417       0.04429499       3.71063581         0.00000000       0.00000000       0.00000000          1
6
pbc=[F, F, F] list_num_par=6 energy=-0.03913546 iter=119 frozen=false Lattice="15.00000000 0.00000000 0.00000000 0.00000000 15.00000000 0.00000000 0.00000000 0.00000000 15.00000000" energy_frozen_part=0.00000000 Properties=species:S:1:pos:R:3:velocities:R:3:Z:I:1
H         4.28351048      14.53839194       4.41699518         0.00000000       0.00000000       0.00000000          1
H        11.00064258       5.89454123       5.10117394         0.00000000       0.00000000       0.00000000          1
H        14.18084905      12.19692138       1.46941124         0.00000000       0.00000000       0.00000000          1
H        10.01288945       1.94023181       6.56387525         0.00000000       0.00000000       0.00000000          1
H         8.17788668       8.82626815       4.18315712         0.00000000       0.00000000       0.00000000          1
H         2.61256615       9.12759288       3.19438070         0.00000000       0.00000000       0.00000000          1
6
pbc=[F, F, F] list_num_par=6 energy=-0.04490588 iter=129 frozen=false Lattice="15.00000000 0.00000000 0.00000000 0.00000000 15.00000000 0.00000000 0.00000000 0.00000000 15.00000000" energy_frozen_part=0.00000000 Properties=species:S:1:pos:R:3:velocities:R:3:Z:I:1
H        11.89080051       9.57656122       4.35581772         0.00000000       0.00000000       0.00000000          1
H         9.18855886      10.52226741      14.46794559         0.00000000       0.00000000       0.00000000          1
H         8.74225620      10.06533596       7.38510100         0.00000000       0.00000000       0.00000000          1
H        12.33759863      14.91121965      13.95326959         0.00000000       0.00000000       0.00000000          1
H         2.93536070       6.95232653      12.24154015         0.00000000       0.00000000       0.00000000          1
H        14.59700849      11.05758534       6.79463988         0.00000000       0.00000000       0.00000000          1
6
pbc=[F, F, F] list_num_par=6 energy=-0.05053876 iter=139 frozen=false Lattice="15.00000000 0.00000000 0.00000000 0.00000000 15.00000000 0.00000000 0.00000000 0.00000000 15.00000000" energy_frozen_part=0.00000000 Properties=species:S:1:pos:R:3:velocities:R:3:Z:I:1
H        13.58371218       2.95015039       3.43884506         0.00000000       0.00000000       0.00000000          1
H        12.04931035       9.22289334      13.39495358         0.00000000       0.00000000       0.00000000          1
H        13.31505902       9.67735868       0.19173884         0.00000000       0.00000000       0.00000000          1
H        11.34653308      12.00916353       1.78398874         0.00000000       0.00000000       0.00000000          1
H         3.33865716       0.84765269       9.04476906         0.00000000       0.00000000       0.00000000          1
H         4.16552227       4.03592453       0.14913400         0.00000000       0.00000000       0.00000000          1
6
pbc=[F, F, F] list_num_par=6 energy=-0.05516354 iter=149 frozen=false Lattice="15.00000000 0.00000000 0.00000000 0.00000000 15.00000000 0.00000000 0.00000000 0.00000000 15.00000000" energy_frozen_part=0.00000000 Properties=species:S:1:pos:R:3:velocities:R:3:Z:I:1
H         3.67810324       4.21752004       4.03476691         0.00000000       0.00000000       0.00000000          1
H        12.32820686       4.48401763      10.90988339         0.00000000       0.00000000       0.00000000          1
H         8.53954790      14.42364128      12.24227250         0.00000000       0.00000000       0.00000000          1
H         3.45077266      12.30080303       5.07248717         0.00000000       0.00000000       0.00000000          1
H         6.51272860       4.75992627       5.84327741         0.00000000       0.00000000       0.00000000          1
H         0.42819089       4.66391368       9.86383032         0.00000000       0.00000000       0.00000000          1
6
pbc=[F, F, F] list_num_par=6 energy=-0.06287413 iter=159 frozen=false Lattice="15.00000000 0.00000000 0.00000000 0.00000000 15.00000000 0.00000000 0.00000000 0.00000000 15.00000000" energy_frozen_part=0.00000000 Properties=species:S:1:pos:R:3:velocities:R:3:Z:I:1
H         8.51051436       7.90990286       1.40260086         0.00000000       0.00000000       0.00000000          1
H         3.11885985       6.46137282       5.78807886         0.00000000       0.00000000       0.00000000          1
H        12.82023863      12.32975360       9.74494389         0.00000000       0.00000000       0.00000000          1
H         2.21834970       0.16672703       7.76226660         0.00000000       0.00000000       0.00000000          1
H        10.44834270      12.25629751       6.47335531         0.00000000       0.00000000       0.00000000          1
H        14.04597765      10.81134345       5.87287319         0.00000000       0.00000000       0.00000000          1
6
pbc=[F, F, F] list_num_par=6 energy=-0.07124134 iter=169 frozen=false Lattice="15.00000000 0.00000000 0.00000000 0.00000000 15.00000000 0.00000000 0.00000000 0.00000000 15.00000000" energy_frozen_part=0.00000000 Properties=species:S:1:pos:R:3:velocities:R:3:Z:I:1
H         1.60206685       9.41496529       0.80842732         0.00000000       0.00000000       0.00000000          1
H         6.75810961      12.04177822       5.82204618         0.00000000       0.00000000       0.00000000          1
H         3.85205513      11.64820163       1.92471403         0.00000000       0.00000000       0.00000000          1
H        11.74976730       0.35275686       6.42192210         0.00000000       0.00000000       0.00000000          1
H        12.55295457       9.84631834      13.80970988         0.00000000       0.00000000       0.00000000          1
H         8.84135442      11.91422414       0.44741569         0.00000000       0.00000000       0.00000000          1
6
pbc=[F, F, F] list_num_par=6 energy=-0.07652315 iter=179 frozen=false Lattice="15.00000000 0.00000000 0.00000000 0.00000000 15.00000000 0.00000000 0.00000000 0.00000000 15.00000000" energy_frozen_part=0.00000000 Properties=species:S:1:pos:R:3:velocities:R:3:Z:I:1
H         7.86628670       2.96666260       6.47003086         0.00000000       0.00000000       0.00000000          1
H        12.55161438       5.60974213      13.47493263         0.00000000       0.00000000       0.00000000          1
H        12.67479824      10.42044046       7.74035261         0.00000000       0.00000000       0.00000000          1
H         3.49272305      12.71014255       7.69221157         0.00000000       0.00000000       0.00000000          1
H         4.83927948       2.08265139       6.47662438         0.00000000       0.00000000       0.00000000          1
H         2.55390010       2.62556838      12.67886792         0.00000000       0.00000000       0.00000000          1
6
pbc=[F, F, F] list_num_par=6 energy=-0.08001496 iter=189 frozen=false Lattice="15.00000000 0.00000000 0.00000000 0.00000000 15.00000000 0.00000000 0.00000000 0.00000000 15.00000000" energy_frozen_part=0.00000000 Properties=species:S:1:pos:R:3:velocities:R:3:Z:I:1
H         3.05176524      10.68993515      12.50946786         0.00000000       0.00000000       0.00000000          1
H         5.41125886       4.71404321       6.36836840         0.00000000       0.00000000       0.00000000          1
H         7.02390991      13.28934168       3.88664997         0.00000000       0.00000000       0.00000000          1
H        14.09817195       9.19743587       7.24290700         0.00000000       0.00000000       0.00000000          1
H         6.29913642       2.40139792       9.20556774         0.00000000       0.00000000       0.00000000          1
H         3.96016879       8.19205756      14.73547940         0.00000000       0.00000000       0.00000000          1
6
pbc=[F, F, F] list_num_par=6 energy=-0.08395700 iter=199 frozen=false Lattice="15.00000000 0.00000000 0.00000000 0.00000000 15.00000000 0.00000000 0.00000000 0.00000000 15.00000000" energy_frozen_part=0.00000000 Properties=species:S:1:pos:R:3:velocities:R:3:Z:I:1
H         0.86255246       8.43093721      10.35709079         0.00000000       0.00000000       0.00000000          1
H        11.52385654      11.21586817       3.60611770         0.00000000       0.00000000       0.00000000          1
H         6.35951905       7.98333459       6.61465059         0.00000000       0.00000000       0.00000000          1
H         4.13391204       9.63400798      10.11461510         0.00000000       0.00000000       0.00000000          1
H         3.83784722      13.44808191      12.27920128         0.00000000       0.00000000       0.00000000          1
H         8.61697131      13.15033102       7.83812789         0.00000000       0.00000000       0.00000000          1
6
pbc=[F, F, F] list_num_par=6 energy=-0.08686950 iter=209 frozen=false Lattice="15.00000000 0.00000000 0.00000000 0.00000000 15.00000000 0.00000000 0.00000000 0.00000000 15.00000000" energy_frozen_part=0.00000000 Properties=species:S:1:pos:R:3:velocities:R:3:Z:I:1
H        13.64637269       7.55323342       6.78707197         0.00000000       0.00000000       0.00000000          1
H         0.02099277       1.17586925       6.06074003         0.00000000       0.00000000       0.00000000          1
H        14.13205360       0.26853902      11.95925590         0.00000000       0.00000000       0.00000000          1
H         5.37779097       2.57454291       2.37770744         0.00000000       0.00000000       0.00000000          1
H        11.02898239       2.97208629      12.09515287         0.00000000       0.00000000       0.00000000          1
H        14.90223052       7.43792693       9.79550881         0.00000000       0.00000000       0.00000000          1
6
pbc=[F, F, F] list_num_par=6 energy=-0.09005739 iter=219 frozen=false Lattice="15.00000000 0.00000000 0.00000000 0.00000000 15.00000000 0.00000000 0.00000000 0.00000000 15.00000000" energy_frozen_part=0.00000000 Properties=species:S:1:pos:R:3:velocities:R:3:Z:I:1
H        13.33429825       4.58684167       8.86713184         0.00000000       0.00000000       0.00000000          1
H         3.24519862       5.63577702      12.84304704         0.00000000       0.00000000       0.00000000          1
H        13.15117258      10.77075953       9.52662389         0.00000000       0.00000000       0.00000000          1
H        11.52904446       6.52461349       2.20911620         0.00000000       0.00000000       0.00000000          1
H        12.92032146       8.81660129       3.65752549         0.00000000       0.00000000       0.00000000          1
H         9.06214070       0.30066493      14.51245147         0.00000000       0.00000000       0.00000000          1
6
pbc=[F, F, F] list_num_par=6 energy=-0.09389567 iter=229 frozen=false Lattice="15.00000000 0.00000000 0.00000000 0.00000000 15.00000000 0.00000000 0.00000000 0.00000000 15.00000000" energy_frozen_part=0.00000000 Properties=species:S:1:pos:R:3:velocities:R:3:Z:I:1
H         7.82696104       5.60788414       1.38832294         0.00000000       0.00000000       0.00000000          1
H        13.55245094       9.88361967      11.14975683         0.00000000       0.00000000       0.00000000          1
H         5.99464722      10.18952040       6.03830015         0.00000000       0.00000000       0.00000000          1
H         7.07271989      12.60816018       6.36945538         0.00000000       0.00000000       0.00000000          1
H         2.67331732       4.93538829       0.50360659         0.00000000       0.00000000       0.00000000          1
H        14.95838940       7.55734923       1.48872173         0.00000000       0.00000000       0.00000000          1
6
pbc=[F, F, F] list_num_par=6 energy=-0.09725041 iter=239 frozen=false Lattice="15.00000000 0.00000000 0.00000000 0.00000000 15.00000000 0.00000000 0.00000000 0.00000000 15.00000000" energy_frozen_part=0.00000000 Properties=species:S:1:pos:R:3:velocities:R:3:Z:I:1
H         0.52966628       3.97292094       6.69735539         0.00000000       0.00000000       0.00000000          1
H        12.32309031       2.41565433       2.64595498         0.00000000       0.00000000       0.00000000          1
H         4.95988179       6.01352433      14.16387573         0.00000000       0.00000000       0.00000000          1
H         4.74787614      11.85760459       5.13340174         0.00000000       0.00000000       0.00000000          1
H         7.22980316       8.20597847      14.85332571         0.00000000       0.00000000       0.00000000          1
H         4.59819248       5.88613311      10.24111907         0.00000000       0.00000000       0.00000000          1
6
pbc=[F, F, F] list_num_par=6 energy=-0.10034491 iter=249 frozen=false Lattice="15.00000000 0.00000000 0.00000000 0.00000000 15.00000000 0.00000000 0.00000000 0.00000000 15.00000000" energy_frozen_part=0.00000000 Properties=species:S:1:pos:R:3:velocities:R:3:Z:I:1
H        10.17633751      10.99872994      14.90148794         0.00000000       0.00000000       0.00000000          1
H         0.32448398       1.98483434      11.20754658         0.00000000       0.00000000       0.00000000          1
H        12.44215041       9.44728196       0.06042965         0.00000000       0.00000000       0.00000000          1
H         5.73789157       1.93427213       4.38303831         0.00000000       0.00000000       0.00000000          1
H         6.02993305      14.36193980       0.89820186         0.00000000       0.00000000       0.00000000          1
H         7.59922770       3.66123002       5.59440407         0.00000000       0.00000000       0.00000000          1
6
pbc=[F, F, F] list_num_par=6 energy=-0.10269722 iter=259 frozen=false Lattice="15.00000000 0.00000000 0.00000000 0.00000000 15.00000000 0.00000000 0.00000000 0.00000000 15.00000000" energy_frozen_part=0.00000000 Properties=species:S:1:pos:R:3:velocities:R:3:Z:I:1
H         6.08773457       7.53596238       3.18542529         0.00000000       0.00000000       0.00000000          1
H         7.59198601       9.37446549      13.01516642         0.00000000       0.00000000       0.00000000          1
H         1.21836103      10.90149238      14.98439602         0.00000000       0.00000000       0.00000000          1
H         2.64781322       0.09118786       0.12666207         0.00000000       0.00000000       0.00000000          1
H        10.97126615      11.59379186       3.57736736         0.00000000       0.00000000       0.00000000          1
H         5.77199691       5.23215290       4.79363489         0.00000000       0.00000000       0.00000000          1
6
pbc=[F, F, F] list_num_par=6 energy=-0.10628391 iter=269 frozen=false Lattice="15.00000000 0.00000000 0.00000000 0.00000000 15.00000000 0.00000000 0.00000000 0.00000000 15.00000000" energy_frozen_part=0.00000000 Properties=species:S:1:pos:R:3:velocities:R:3:Z:I:1
H         0.88840223       0.66330832      13.81627020         0.00000000       0.00000000       0.00000000          1
H         1.09401844      11.36652714       1.81620083         0.00000000       0.00000000       0.00000000          1
H         5.04378030       9.67172943       4.33643487         0.00000000       0.00000000       0.00000000          1
H        13.51118733       3.95394231      13.42115619         0.00000000       0.00000000       0.00000000          1
H         4.89308131       9.32059294       7.16689222         0.00000000       0.00000000       0.00000000          1
H        11.43871884      14.40790064       3.91810943         0.00000000       0.00000000       0.00000000          1
6
pbc=[F, F, F] list_num_par=6 energy=-0.10985767 iter=279 frozen=false Lattice="15.00000000 0.00000000 0.00000000 0.00000000 15.00000000 0.00000000 0.00000000 0.00000000 15.00000000" energy_frozen_part=0.00000000 Properties=species:S:1:pos:R:3:velocities:R:3:Z:I:1
H         3.63757770       1.16574774       7.57149663         0.00000000       0.00000000       0.00000000          1
H         2.25250411      14.56091655       0.40815976         0.00000000       0.00000000       0.00000000          1
H         4.87125393       7.50426647      14.88372246         0.00000000       0.00000000       0.00000000          1
H         3.41619378       0.45380019      13.65028737         0.00000000       0.00000000       0.00000000          1
H         2.19541283       2.41526968       9.55710436         0.00000000       0.00000000       0.00000000          1
H        14.58862457       1.45744290       5.08297884         0.00000000       0.00000000       0.00000000          1
6
pbc=[F, F, F] list_num_par=6 energy=-0.11282293 iter=289 frozen=false Lattice="15.00000000 0.00000000 0.00000000 0.00000000 15.00000000 0.00000000 0.00000000 0.00000000 15.00000000" energy_frozen_part=0.00000000 Properties=species:S:1:pos:R:3:velocities:R:3:Z:I:1
H         3.93110877       5.69158320       3.91989370         0.00000000       0.00000000       0.00000000          1
H         2.98809364       5.56920246      14.03937536         0.00000000       0.00000000       0.00000000          1
H         3.58757018       8.74440996       7.20554587         0.00000000       0.00000000       0.00000000          1
H         0.05363413       0.73071282       4.20775517         0.00000000       0.00000000       0.00000000          1
H         9.49703277      13.11767418      10.72228382         0.00000000       0.00000000       0.00000000          1
H         6.49920353       4.77725217       4.04503220         0.00000000       0.00000000       0.00000000          1
6
pbc=[F, F, F] list_num_par=6 energy=-0.11511105 iter=299 frozen=false Lattice="15.00000000 0.00000000 0.00000000 0.00000000 15.00000000 0.00000000 0.00000000 0.00000000 15.00000000" energy_frozen_part=0.00000000 Properties=species:S:1:pos:R:3:velocities:R:3:Z:I:1
H         7.50899781       4.95324442       8.33287279         0.00000000       0.00000000       0.00000000          1
H        13.33230149       1.85017308       4.76061795         0.00000000       0.00000000       0.00000000          1
H         3.41665849      14.87114449      14.99722250         0.00000000       0.00000000       0.00000000          1
H         5.49366718      11.66465123       5.80725974         0.00000000       0.00000000       0.00000000          1
H         3.45674766       9.59856806      11.89522223         0.00000000       0.00000000       0.00000000          1
H         6.51739328       9.30713020       7.05851521         0.00000000       0.00000000       0.00000000          1
6
pbc=[F, F, F] list_num_par=6 energy=-0.11688942 iter=309 frozen=false Lattice="15.00000000 0.00000000 0.00000000 0.00000000 15.00000000 0.00000000 0.00000000 0.00000000 15.00000000" energy_frozen_part=0.00000000 Properties=species:S:1:pos:R:3:velocities:R:3:Z:I:1
H         4.57786378       4.88410820      13.24036977         0.00000000       0.00000000       0.00000000          1
H         4.58990126      12.29551158       4.63607078         0.00000000       0.00000000       0.00000000          1