6
pbc=[F, F, F] list_num_par=6 energy=-1.26974174 iter=20000 frozen=false Lattice="15.00000000 0.00000000 0.00000000 0.00000000 15.00000000 0.00000000 0.00000000 0.00000000 15.00000000" energy_frozen_part=0.00000000 Properties=species:S:1:pos:R:3:velocities:R:3:Z:I:1
H        10.11319785      10.28663879       6.03558667         0.00000000       0.00000000       0.00000000          1
H         7.60203393       9.08415944       6.26441803         0.00000000       0.00000000       0.00000000          1
H         9.77090146      11.47791076       8.53918160         0.00000000       0.00000000       0.00000000          1
H         7.25973939      10.27543446       8.76801166         0.00000000       0.00000000       0.00000000          1
H         7.85545393      11.85253142       6.54042429         0.00000000       0.00000000       0.00000000          1
H         9.51747799       8.70953585       8.26317775         0.00000000       0.00000000       0.00000000          1
6
pbc=[F, F, F] list_num_par=6 energy=-1.26974174 iter=20000 frozen=false Lattice="15.00000000 0.00000000 0.00000000 0.00000000 15.00000000 0.00000000 0.00000000 0.00000000 15.00000000" energy_frozen_part=0.00000000 Properties=species:S:1:pos:R:3:velocities:R:3:Z:I:1
H        10.11300733      10.28693657       6.03547503         0.00000000       0.00000000       0.00000000          1
H         7.60205738       9.08405314       6.26450664         0.00000000       0.00000000       0.00000000          1
H         9.77071076      11.47814566       8.53910122         0.00000000       0.00000000       0.00000000          1
H         7.25976036      10.27525455       8.76813921         0.00000000       0.00000000       0.00000000          1
H         7.85505144      11.85246268       6.54050694         0.00000000       0.00000000       0.00000000          1
H         9.51772057       8.70973637       8.26310636         0.00000000       0.00000000       0.00000000          1
6
pbc=[F, F, F] list_num_par=6 energy=-1.26974174 iter=20000 frozen=false Lattice="15.00000000 0.00000000 0.00000000 0.00000000 15.00000000 0.00000000 0.00000000 0.00000000 15.00000000" energy_frozen_part=0.00000000 Properties=species:S:1:pos:R:3:velocities:R:3:Z:I:1
H        10.11302213      10.28695597       6.03547473         0.00000000       0.00000000       0.00000000          1
H         7.60208018       9.08404891       6.26450132         0.00000000       0.00000000       0.00000000          1
H         9.77070436      11.47817549       8.53909348         0.00000000       0.00000000       0.00000000          1
H         7.25976429      10.27525684       8.76811989         0.00000000       0.00000000       0.00000000          1
H         7.85504780      11.85246595       6.54048806         0.00000000       0.00000000       0.00000000          1
H         9.51774372       8.70975347       8.26311156         0.00000000       0.00000000       0.00000000          1
6
pbc=[F, F, F] list_num_par=6 energy=-1.26974174 iter=20000 frozen=false Lattice="15.00000000 0.00000000 0.00000000 0.00000000 15.00000000 0.00000000 0.00000000 0.00000000 15.00000000" energy_frozen_part=0.00000000 Properties=species:S:1:pos:R:3:velocities:R:3:Z:I:1
H        10.11319722      10.28664024       6.03558377         0.00000000       0.00000000       0.00000000          1
H         7.60203393       9.08415944       6.26441803         0.00000000       0.00000000       0.00000000          1
H         9.77090266      11.47791047       8.53917504         0.00000000       0.00000000       0.00000000          1
H         7.25973893      10.27542557       8.76801789         0.00000000       0.00000000       0.00000000          1
H         7.85545393      11.85253142       6.54042429         0.00000000       0.00000000       0.00000000          1
H         9.51748098       8.70953028       8.26316926         0.00000000       0.00000000       0.00000000          1
6
pbc=[F, F, F] list_num_par=6 energy=-1.26974174 iter=20000 frozen=false Lattice="15.00000000 0.00000000 0.00000000 0.00000000 15.00000000 0.00000000 0.00000000 0.00000000 15.00000000" energy_frozen_part=0.00000000 Properties=species:S:1:pos:R:3:velocities:R:3:Z:I:1
H        10.11324839      10.28665567       6.03565392         0.00000000       0.00000000       0.00000000          1
H         7.60207272       9.08417006       6.26439396         0.00000000       0.00000000       0.00000000          1
H         9.77087442      11.47788802       8.53925382         0.00000000       0.00000000       0.00000000          1
H         7.25970931      10.27540022       8.76799883         0.00000000       0.00000000       0.00000000          1
H         7.85549226      11.85254112       6.54045130         0.00000000       0.00000000       0.00000000          1
H         9.51746654       8.70951793       8.26319955         0.00000000       0.00000000       0.00000000          1
6
pbc=[F, F, F] list_num_par=6 energy=-1.26974174 iter=20000 frozen=false Lattice="15.00000000 0.00000000 0.00000000 0.00000000 15.00000000 0.00000000 0.00000000 0.00000000 15.00000000" energy_frozen_part=0.00000000 Properties=species:S:1:pos:R:3:velocities:R:3:Z:I:1
H        10.11321689      10.28667667       6.03561313         0.00000000       0.00000000       0.00000000          1
H         7.60207783       9.08414596       6.26441041         0.00000000       0.00000000       0.00000000          1
H         9.77086587      11.47793170       8.53921095         0.00000000       0.00000000       0.00000000          1
H         7.25972768      10.27539709       8.76801111         0.00000000       0.00000000       0.00000000          1
H         7.85544049      11.85251912       6.54043273         0.00000000       0.00000000       0.00000000          1
H         9.51750595       8.70955167       8.26318643         0.00000000       0.00000000       0.00000000          1
6
pbc=[F, F, F] list_num_par=6 energy=-1.26974174 iter=20000 frozen=false Lattice="15.00000000 0.00000000 0.00000000 0.00000000 15.00000000 0.00000000 0.00000000 0.00000000 15.00000000" energy_frozen_part=0.00000000 Properties=species:S:1:pos:R:3:velocities:R:3:Z:I:1
H        10.11065999      10.29044069       6.03213090         0.00000000       0.00000000       0.00000000          1
H         7.60260268       9.08228487       6.26508318         0.00000000       0.00000000       0.00000000          1
H         9.76953617      11.48139234       8.53603833         0.00000000       0.00000000       0.00000000          1
H         7.26147546      10.27323143       8.76899754         0.00000000       0.00000000       0.00000000          1
H         7.85014038      11.85127091       6.54019519         0.00000000       0.00000000       0.00000000          1
H         9.52200015       8.71239997       8.26093108         0.00000000       0.00000000       0.00000000          1
6
pbc=[F, F, F] list_num_par=6 energy=-1.26974174 iter=20000 frozen=false Lattice="15.00000000 0.00000000 0.00000000 0.00000000 15.00000000 0.00000000 0.00000000 0.00000000 15.00000000" energy_frozen_part=0.00000000 Properties=species:S:1:pos:R:3:velocities:R:3:Z:I:1
H        10.11281800      10.28712059       6.03568654         0.00000000       0.00000000       0.00000000          1
H         7.60181693       9.08430453       6.26456163         0.00000000       0.00000000       0.00000000          1
H         9.77058570      11.47797861       8.53948299         0.00000000       0.00000000       0.00000000          1
H         7.25958517      10.27516450       8.76835705         0.00000000       0.00000000       0.00000000          1
H         7.85492427      11.85266683       6.54094913         0.00000000       0.00000000       0.00000000          1
H         9.51747855       8.70961796       8.26310131         0.00000000       0.00000000       0.00000000          1
6
pbc=[F, F, F] list_num_par=6 energy=-1.26974174 iter=20000 frozen=false Lattice="15.00000000 0.00000000 0.00000000 0.00000000 15.00000000 0.00000000 0.00000000 0.00000000 15.00000000" energy_frozen_part=0.00000000 Properties=species:S:1:pos:R:3:velocities:R:3:Z:I:1
H        10.11322823      10.28667120       6.03561095         0.00000000       0.00000000       0.00000000          1
H         7.60206115       9.08418590       6.26441554         0.00000000       0.00000000       0.00000000          1
H         9.77091455      11.47790316       8.53921824         0.00000000       0.00000000       0.00000000          1
H         7.25975561      10.27541627       8.76802891         0.00000000       0.00000000       0.00000000          1
H         7.85548193      11.85255719       6.54046536         0.00000000       0.00000000       0.00000000          1
H         9.51750028       8.70953731       8.26317364         0.00000000       0.00000000       0.00000000          1
6
pbc=[F, F, F] list_num_par=6 energy=-1.26974174 iter=20000 frozen=false Lattice="15.00000000 0.00000000 0.00000000 0.00000000 15.00000000 0.00000000 0.00000000 0.00000000 15.00000000" energy_frozen_part=0.00000000 Properties=species:S:1:pos:R:3:velocities:R:3:Z:I:1
H        10.11282820      10.28711683       6.03567785         0.00000000       0.00000000       0.00000000          1
H         7.60183439       9.08428466       6.26457617         0.00000000       0.00000000       0.00000000          1
H         9.77060761      11.47799023       8.53946696         0.00000000       0.00000000       0.00000000          1
H         7.25961635      10.27516088       8.76837039         0.00000000       0.00000000       0.00000000          1
H         7.85492694      11.85264676       6.54094295         0.00000000       0.00000000       0.00000000          1
H         9.51751596       8.70962096       8.26309845         0.00000000       0.00000000       0.00000000          1
6
pbc=[F, F, F] list_num_par=6 energy=-1.26974174 iter=20000 frozen=false Lattice="15.00000000 0.00000000 0.00000000 0.00000000 15.00000000 0.00000000 0.00000000 0.00000000 15.00000000" energy_frozen_part=0.00000000 Properties=species:S:1:pos:R:3:velocities:R:3:Z:I:1
H        10.11281477      10.28708715       6.03565828         0.00000000       0.00000000       0.00000000          1
H         7.60182298       9.08425971       6.26457068         0.00000000       0.00000000       0.00000000          1
H         9.77060115      11.47797966       8.53944528         0.00000000       0.00000000       0.00000000          1
H         7.25960687      10.27515186       8.76835277         0.00000000       0.00000000       0.00000000          1
H         7.85491659      11.85262633       6.54092490         0.00000000       0.00000000       0.00000000          1
H         9.51750869       8.70961570       8.26309549         0.00000000       0.00000000       0.00000000          1
6
pbc=[F, F, F] list_num_par=6 energy=-1.26974174 iter=20000 frozen=false Lattice="15.00000000 0.00000000 0.00000000 0.00000000 15.00000000 0.00000000 0.00000000 0.00000000 15.00000000" energy_frozen_part=0.00000000 Properties=species:S:1:pos:R:3:velocities:R:3:Z:I:1
H        10.11321548      10.28666991       6.03561256         0.00000000       0.00000000       0.00000000          1
H         7.60206188       9.08415761       6.26441547         0.00000000       0.00000000       0.00000000          1
H         9.77088719      11.47791068       8.53921826         0.00000000       0.00000000       0.00000000          1
H         7.25973514      10.27539616       8.76802680         0.00000000       0.00000000       0.00000000          1
H         7.85544936      11.85253308       6.54046182         0.00000000       0.00000000       0.00000000          1
H         9.51749703       8.70954345       8.26318380         0.00000000       0.00000000       0.00000000          1
6
pbc=[F, F, F] list_num_par=6 energy=-1.26974174 iter=20000 frozen=false Lattice="15.00000000 0.00000000 0.00000000 0.00000000 15.00000000 0.00000000 0.00000000 0.00000000 15.00000000" energy_frozen_part=0.00000000 Properties=species:S:1:pos:R:3:velocities:R:3:Z:I:1
H        10.11066949      10.29045421       6.03213115         0.00000000       0.00000000       0.00000000          1
H         7.60262985       9.08225470       6.26505924         0.00000000       0.00000000       0.00000000          1
H         9.76951049      11.48139329       8.53603260         0.00000000       0.00000000       0.00000000          1
H         7.26146295      10.27319945       8.76896900         0.00000000       0.00000000       0.00000000          1
H         7.85012403      11.85125415       6.54017851         0.00000000       0.00000000       0.00000000          1
H         9.52201443       8.71240111       8.26092013         0.00000000       0.00000000       0.00000000          1
6
pbc=[F, F, F] list_num_par=6 energy=-1.26974174 iter=20000 frozen=false Lattice="15.00000000 0.00000000 0.00000000 0.00000000 15.00000000 0.00000000 0.00000000 0.00000000 15.00000000" energy_frozen_part=0.00000000 Properties=species:S:1:pos:R:3:velocities:R:3:Z:I:1
H        10.11281598      10.28712977       6.03565962         0.00000000       0.00000000       0.00000000          1
H         7.60181914       9.08430014       6.26455913         0.00000000       0.00000000       0.00000000          1
H         9.77060539      11.47797189       8.53947111         0.00000000       0.00000000       0.00000000          1
H         7.25961142      10.27514224       8.76837106         0.00000000       0.00000000       0.00000000          1
H         7.85492379      11.85266162       6.54095696         0.00000000       0.00000000       0.00000000          1
H         9.51750593       8.70961192       8.26306276         0.00000000       0.00000000       0.00000000          1
6
pbc=[F, F, F] list_num_par=6 energy=-1.26974174 iter=20000 frozen=false Lattice="15.00000000 0.00000000 0.00000000 0.00000000 15.00000000 0.00000000 0.00000000 0.00000000 15.00000000" energy_frozen_part=0.00000000 Properties=species:S:1:pos:R:3:velocities:R:3:Z:I:1
H        10.11323341      10.28668251       6.03561915         0.00000000       0.00000000       0.00000000          1
H         7.60206862       9.08419341       6.26439723         0.00000000       0.00000000       0.00000000          1
H         9.77090028      11.47789897       8.53923359         0.00000000       0.00000000       0.00000000          1
H         7.25973637      10.27542132       8.76800889         0.00000000       0.00000000       0.00000000          1
H         7.85548499      11.85256415       6.54045892         0.00000000       0.00000000       0.00000000          1
H         9.51748731       8.70953279       8.26316769         0.00000000       0.00000000       0.00000000          1
6
pbc=[F, F, F] list_num_par=6 energy=-1.26974174 iter=20000 frozen=false Lattice="15.00000000 0.00000000 0.00000000 0.00000000 15.00000000 0.00000000 0.00000000 0.00000000 15.00000000" energy_frozen_part=0.00000000 Properties=species:S:1:pos:R:3:velocities:R:3:Z:I:1
H        10.03375975      10.27217410       5.93406765         0.00000000       0.00000000       0.00000000          1
H         7.51646768       9.11400247       6.28924501         0.00000000       0.00000000       0.00000000          1
H         9.80425994      11.53234758       8.41672234         0.00000000       0.00000000       0.00000000          1
H         7.28696747      10.37417989       8.77189688         0.00000000       0.00000000       0.00000000          1
H         7.81928412      11.88441132       6.48275881         0.00000000       0.00000000       0.00000000          1
H         9.50144191       8.76194168       8.22320660         0.00000000       0.00000000       0.00000000          1
6
pbc=[F, F, F] list_num_par=6 energy=-1.26974174 iter=20000 frozen=false Lattice="15.00000000 0.00000000 0.00000000 0.00000000 15.00000000 0.00000000 0.00000000 0.00000000 15.00000000" energy_frozen_part=0.00000000 Properties=species:S:1:pos:R:3:velocities:R:3:Z:I:1
H        10.11280021      10.28712770       6.03570476         0.00000000       0.00000000       0.00000000          1
H         7.60181061       9.08428441       6.26457937         0.00000000       0.00000000       0.00000000          1
H         9.77056021      11.47799186       8.53950248         0.00000000       0.00000000       0.00000000          1
H         7.25956563      10.27514250       8.76838124         0.00000000       0.00000000       0.00000000          1
H         7.85489427      11.85264878       6.54096463         0.00000000       0.00000000       0.00000000          1
H         9.51747302       8.70962605       8.26311526         0.00000000       0.00000000       0.00000000          1
6
pbc=[F, F, F] list_num_par=6 energy=-1.26974174 iter=20000 frozen=false Lattice="15.00000000 0.00000000 0.00000000 0.00000000 15.00000000 0.00000000 0.00000000 0.00000000 15.00000000" energy_frozen_part=0.00000000 Properties=species:S:1:pos:R:3:velocities:R:3:Z:I:1
H        10.11321143      10.28666853       6.03559467         0.00000000       0.00000000       0.00000000          1
H         7.60205794       9.08415894       6.26439677         0.00000000       0.00000000       0.00000000          1
H         9.77088473      11.47791779       8.53919712         0.00000000       0.00000000       0.00000000          1
H         7.25972671      10.27540211       8.76799858         0.00000000       0.00000000       0.00000000          1
H         7.85544931      11.85252925       6.54043308         0.00000000       0.00000000       0.00000000          1
H         9.51748930       8.70954137       8.26317088         0.00000000       0.00000000       0.00000000          1
6
pbc=[F, F, F] list_num_par=6 energy=-1.26974174 iter=20000 frozen=false Lattice="15.00000000 0.00000000 0.00000000 0.00000000 15.00000000 0.00000000 0.00000000 0.00000000 15.00000000" energy_frozen_part=0.00000000 Properties=species:S:1:pos:R:3:velocities:R:3:Z:I:1
H        10.11323079      10.28667410       6.03560987         0.00000000       0.00000000       0.00000000          1
H         7.60206012       9.08417540       6.26440245         0.00000000       0.00000000       0.00000000          1
H         9.77088818      11.47790965       8.53921543         0.00000000       0.00000000       0.00000000          1
H         7.25972966      10.27541179       8.76800876         0.00000000       0.00000000       0.00000000          1
H         7.85546639      11.85253798       6.54044023         0.00000000       0.00000000       0.00000000          1
H         9.51748745       8.70954059       8.26317056         0.00000000       0.00000000       0.00000000          1
6
pbc=[F, F, F] list_num_par=6 energy=-1.26974174 iter=20000 frozen=false Lattice="15.00000000 0.00000000 0.00000000 0.00000000 15.00000000 0.00000000 0.00000000 0.00000000 15.00000000" energy_frozen_part=0.00000000 Properties=species:S:1:pos:R:3:velocities:R:3:Z:I:1
H        10.11301372      10.28693711       6.03545234         0.00000000       0.00000000       0.00000000          1
H         7.60206511       9.08404131       6.26450253         0.00000000       0.00000000       0.00000000          1
H         9.77072428      11.47815635       8.53907575         0.00000000       0.00000000       0.00000000          1
H         7.25977363      10.27525932       8.76812887         0.00000000       0.00000000       0.00000000          1
H         7.85505756      11.85245310       6.54048209         0.00000000       0.00000000       0.00000000          1
H         9.51773854       8.70974286       8.26309886         0.00000000       0.00000000       0.00000000          1
6
pbc=[F, F, F] list_num_par=6 energy=-1.26974174 iter=20000 frozen=false Lattice="15.00000000 0.00000000 0.00000000 0.00000000 15.00000000 0.00000000 0.00000000 0.00000000 15.00000000" energy_frozen_part=0.00000000 Properties=species:S:1:pos:R:3:velocities:R:3:Z:I:1
H        10.11322497      10.28663481       6.03561317         0.00000000       0.00000000       0.00000000          1
H         7.60206311       9.08413656       6.26442296         0.00000000       0.00000000       0.00000000          1
H         9.77088794      11.47790793       8.53920109         0.00000000       0.00000000       0.00000000          1
H         7.25973290      10.27540500       8.76801682         0.00000000       0.00000000       0.00000000          1
H         7.85545880      11.85251383       6.54043265         0.00000000       0.00000000       0.00000000          1
H         9.51749134       8.70953659       8.26319638         0.00000000       0.00000000       0.00000000          1
6
pbc=[F, F, F] list_num_par=6 energy=-1.26974174 iter=20000 frozen=false Lattice="15.00000000 0.00000000 0.00000000 0.00000000 15.00000000 0.00000000 0.00000000 0.00000000 15.00000000" energy_frozen_part=0.00000000 Properties=species:S:1:pos:R:3:velocities:R:3:Z:I:1
H        10.11324118      10.28667141       6.03561538         0.00000000       0.00000000       0.00000000          1
H         7.60207994       9.08416965       6.26439196         0.00000000       0.00000000       0.00000000          1
H         9.77087837      11.47791550       8.53921562         0.00000000       0.00000000       0.00000000          1
H         7.25971966      10.27541688       8.76798787         0.00000000       0.00000000       0.00000000          1
H         7.85547436      11.85253908       6.54042742         0.00000000       0.00000000       0.00000000          1
H         9.51749021       8.70954209       8.26318226         0.00000000       0.00000000       0.00000000          1
6
pbc=[F, F, F] list_num_par=6 energy=-1.26974174 iter=20000 frozen=false Lattice="15.00000000 0.00000000 0.00000000 0.00000000 15.00000000 0.00000000 0.00000000 0.00000000 15.00000000" energy_frozen_part=0.00000000 Properties=species:S:1:pos:R:3:velocities:R:3:Z:I:1
H        10.03377777      10.27215845       5.93407706         0.00000000       0.00000000       0.00000000          1
H         7.51646734       9.11402095       6.28925217         0.00000000       0.00000000       0.00000000          1
H         9.80429407      11.53233989       8.41672995         0.00000000       0.00000000       0.00000000          1
H         7.28697627      10.37421428       8.77190288         0.00000000       0.00000000       0.00000000          1
H         7.81931812      11.88442232       6.48276772         0.00000000       0.00000000       0.00000000          1
H         9.50143200       8.76194381       8.22321109         0.00000000       0.00000000       0.00000000          1
6
pbc=[F, F, F] list_num_par=6 energy=-1.26974174 iter=20000 frozen=false Lattice="15.00000000 0.00000000 0.00000000 0.00000000 15.00000000 0.00000000 0.00000000 0.00000000 15.00000000" energy_frozen_part=0.00000000 Properties=species:S:1:pos:R:3:velocities:R:3:Z:I:1
H        10.11299457      10.28694255       6.03544204         0.00000000       0.00000000       0.00000000          1
H         7.60205033       9.08404881       6.26450789         0.00000000       0.00000000       0.00000000          1
H         9.77073898      11.47813463       8.53908653         0.00000000       0.00000000       0.00000000          1
H         7.25979374      10.27523298       8.76814493         0.00000000       0.00000000       0.00000000          1
H         7.85504519      11.85246341       6.54051597         0.00000000       0.00000000       0.00000000          1
H         9.51774778       8.70972068       8.26306967         0.00000000       0.00000000       0.00000000          1
6
pbc=[F, F, F] list_num_par=6 energy=-1.26974174 iter=20000 frozen=false Lattice="15.00000000 0.00000000 0.00000000 0.00000000 15.00000000 0.00000000 0.00000000 0.00000000 15.00000000" energy_frozen_part=0.00000000 Properties=species:S:1:pos:R:3:velocities:R:3:Z:I:1
H        10.11445220      10.29073829       6.03446249         0.00000000       0.00000000       0.00000000          1
H         7.60715096       9.07987150       6.26150387         0.00000000       0.00000000       0.00000000          1
H         9.76674782      11.48017466       8.53818416         0.00000000       0.00000000       0.00000000          1
H         7.25945466      10.26931408       8.76522342         0.00000000       0.00000000       0.00000000          1
H         7.85123392      11.84899438       6.53841656         0.00000000       0.00000000       0.00000000          1
H         9.52266624       8.71105389       8.26126306         0.00000000       0.00000000       0.00000000          1
6
pbc=[F, F, F] list_num_par=6 energy=-1.26974174 iter=20000 frozen=false Lattice="15.00000000 0.00000000 0.00000000 0.00000000 15.00000000 0.00000000 0.00000000 0.00000000 15.00000000" energy_frozen_part=0.00000000 Properties=species:S:1:pos:R:3:velocities:R:3:Z:I:1
H        10.11280053      10.28708295       6.03565181         0.00000000       0.00000000       0.00000000          1
H         7.60181032       9.08424766       6.26457237         0.00000000       0.00000000       0.00000000          1
H         9.77060018      11.47797530       8.53943722         0.00000000       0.00000000       0.00000000          1
H         7.25960583      10.27514735       8.76836190         0.00000000       0.00000000       0.00000000          1
H         7.85490811      11.85261279       6.54092151         0.00000000       0.00000000       0.00000000          1
H         9.51749941       8.70961509       8.26309348         0.00000000       0.00000000       0.00000000          1
6
pbc=[F, F, F] list_num_par=6 energy=-1.26974174 iter=20000 frozen=false Lattice="15.00000000 0.00000000 0.00000000 0.00000000 15.00000000 0.00000000 0.00000000 0.00000000 15.00000000" energy_frozen_part=0.00000000 Properties=species:S:1:pos:R:3:velocities:R:3:Z:I:1
H        10.11322323      10.28667211       6.03560145         0.00000000       0.00000000       0.00000000          1
H         7.60206499       9.08417135       6.26440174         0.00000000       0.00000000       0.00000000          1
H         9.77089773      11.47791585       8.53921076         0.00000000       0.00000000       0.00000000          1
H         7.25973264      10.27541138       8.76801077         0.00000000       0.00000000       0.00000000          1
H         7.85546811      11.85254310       6.54044634         0.00000000       0.00000000       0.00000000          1
H         9.51748706       8.70954472       8.26316752         0.00000000       0.00000000       0.00000000          1
6
pbc=[F, F, F] list_num_par=6 energy=-1.26974174 iter=20000 frozen=false Lattice="15.00000000 0.00000000 0.00000000 0.00000000 15.00000000 0.00000000 0.00000000 0.00000000 15.00000000" energy_frozen_part=0.00000000 Properties=species:S:1:pos:R:3:velocities:R:3:Z:I:1
H        10.11280851      10.28711381       6.03566119         0.00000000       0.00000000       0.00000000          1
H         7.60181510       9.08428009       6.26457849         0.00000000       0.00000000       0.00000000          1
H         9.77060089      11.47798843       8.53946228         0.00000000       0.00000000       0.00000000          1
H         7.25960355      10.27515747       8.76837377         0.00000000       0.00000000       0.00000000          1
H         7.85491370      11.85264595       6.54095413         0.00000000       0.00000000       0.00000000          1
H         9.51749998       8.70962869       8.26309039         0.00000000       0.00000000       0.00000000          1
6
pbc=[F, F, F] list_num_par=6 energy=-1.26974174 iter=20000 frozen=false Lattice="15.00000000 0.00000000 0.00000000 0.00000000 15.00000000 0.00000000 0.00000000 0.00000000 15.00000000" energy_frozen_part=0.00000000 Properties=species:S:1:pos:R:3:velocities:R:3:Z:I:1
H        10.11323940      10.28666519       6.03564294         0.00000000       0.00000000       0.00000000          1
H         7.60207345       9.08416154       6.26440163         0.00000000       0.00000000       0.00000000          1
H         9.77087225      11.47788706       8.53924872         0.00000000       0.00000000       0.00000000          1
H         7.25970864      10.27538699       8.76800602         0.00000000       0.00000000       0.00000000          1
H         7.85546728      11.85252956       6.54045829         0.00000000       0.00000000       0.00000000          1
H         9.51748163       8.70952069       8.26319477         0.00000000       0.00000000       0.00000000          1
6
pbc=[F, F, F] list_num_par=6 energy=-1.26974174 iter=20000 frozen=false Lattice="15.00000000 0.00000000 0.00000000 0.00000000 15.00000000 0.00000000 0.00000000 0.00000000 15.00000000" energy_frozen_part=0.00000000 Properties=species:S:1:pos:R:3:velocities:R:3:Z:I:1
H        10.11445409      10.29073259       6.03446466         0.00000000       0.00000000       0.00000000          1
H         7.60715748       9.07987736       6.26149881         0.00000000       0.00000000       0.00000000          1
H         9.76675227      11.48017014       8.53818996         0.00000000       0.00000000       0.00000000          1
H         7.25944700      10.26930782       8.76522187         0.00000000       0.00000000       0.00000000          1
H         7.85123689      11.84899262       6.53842111         0.00000000       0.00000000       0.00000000          1
H         9.52266366       8.71105037       8.26127314         0.00000000       0.00000000       0.00000000          1
6
pbc=[F, F, F] list_num_par=6 energy=-1.26974174 iter=20000 frozen=false Lattice="15.00000000 0.00000000 0.00000000 0.00000000 15.00000000 0.00000000 0.00000000 0.00000000 15.00000000" energy_frozen_part=0.00000000 Properties=species:S:1:pos:R:3:velocities:R:3:Z:I:1
H        10.03379054      10.27217940       5.93408231         0.00000000       0.00000000       0.00000000          1
H         7.51647809       9.11403169       6.28924444         0.00000000       0.00000000       0.00000000          1