6
pbc=[F, F, F] list_num_par=6 energy=371.91961310 iter=9 frozen=false Lattice="15.00000000 0.00000000 0.00000000 0.00000000 15.00000000 0.00000000 0.00000000 0.00000000 15.00000000" energy_frozen_part=0.00000000 Properties=species:S:1:pos:R:3:velocities:R:3:Z:I:1
H         5.73997889      12.72635674       6.63618373         0.00000000       0.00000000       0.00000000          1
H         0.12898612      11.63721782      12.92086086         0.00000000       0.00000000       0.00000000          1
H         9.35158959       8.44115219       1.07838708         0.00000000       0.00000000       0.00000000          1
H         5.29721825      10.72839549      10.76069885         0.00000000       0.00000000       0.00000000          1
H         5.35675053      11.06702969      12.12868071         0.00000000       0.00000000       0.00000000          1
H         3.87905257       9.34287458       6.40478013         0.00000000       0.00000000       0.00000000          1
6
pbc=[F, F, F] list_num_par=6 energy=3.61441146 iter=19 frozen=false Lattice="15.00000000 0.00000000 0.00000000 0.00000000 15.00000000 0.00000000 0.00000000 0.00000000 15.00000000" energy_frozen_part=0.00000000 Properties=species:S:1:pos:R:3:velocities:R:3:Z:I:1
H         2.92515684       6.57756141      10.78833184         0.00000000       0.00000000       0.00000000          1
H        11.33459928       9.10803023       6.10874171         0.00000000       0.00000000       0.00000000          1
H         4.24897337       6.24626714       1.73052969         0.00000000       0.00000000       0.00000000          1
H         0.67996914       5.55303047      14.67820218         0.00000000       0.00000000       0.00000000          1
H         9.89358950       5.73814092      10.40643931         0.00000000       0.00000000       0.00000000          1
H         5.58871507       7.51794098       2.55741119         0.00000000       0.00000000       0.00000000          1
6
pbc=[F, F, F] list_num_par=6 energy=0.22095747 iter=29 frozen=false Lattice="15.00000000 0.00000000 0.00000000 0.00000000 15.00000000 0.00000000 0.00000000 0.00000000 15.00000000" energy_frozen_part=0.00000000 Properties=species:S:1:pos:R:3:velocities:R:3:Z:I:1
H        13.16752523      13.50282283      13.35550088         0.00000000       0.00000000       0.00000000          1
H         6.93207822      13.25855351      12.26545404         0.00000000       0.00000000       0.00000000          1
H         7.81347666      14.55677561      10.51111841         0.00000000       0.00000000       0.00000000          1
H         7.81944166       7.93912293       9.24172306         0.00000000       0.00000000       0.00000000          1
H        10.33912933       5.30446021      11.00758132         0.00000000       0.00000000       0.00000000          1
H         1.00225632      12.76326154      11.04920797         0.00000000       0.00000000       0.00000000          1
6
pbc=[F, F, F] list_num_par=6 energy=-0.00212960 iter=39 frozen=false Lattice="15.00000000 0.00000000 0.00000000 0.00000000 15.00000000 0.00000000 0.00000000 0.00000000 15.00000000" energy_frozen_part=0.00000000 Properties=species:S:1:pos:R:3:velocities:R:3:Z:I:1
H        12.63947317      14.16264695       1.05911807         0.00000000       0.00000000       0.00000000          1
H         7.08887319       1.98705192      12.31964847         0.00000000       0.00000000       0.00000000          1
H        13.74020654       1.79759671       2.65559249         0.00000000       0.00000000       0.00000000          1
H        11.69965087       7.86537226       6.11778142         0.00000000       0.00000000       0.00000000          1
H         2.57799489       2.26752391       7.78199709         0.00000000       0.00000000       0.00000000          1
H         7.07702093      13.71882176      13.56970480         0.00000000       0.00000000       0.00000000          1
6
pbc=[F, F, F] list_num_par=6 energy=-0.00490670 iter=49 frozen=false Lattice="15.00000000 0.00000000 0.00000000 0.00000000 15.00000000 0.00000000 0.00000000 0.00000000 15.00000000" energy_frozen_part=0.00000000 Properties=species:S:1:pos:R:3:velocities:R:3:Z:I:1
H         0.36810082       6.99220456       8.40963778         0.00000000       0.00000000       0.00000000          1
H         0.71937546       1.93149626       2.16267012         0.00000000       0.00000000       0.00000000          1
H         7.35201009       9.87690568      10.17642034         0.00000000       0.00000000       0.00000000          1
H        13.99507032       6.49889742       0.27809527         0.00000000       0.00000000       0.00000000          1
H         7.10979216       5.35332959      13.96726075         0.00000000       0.00000000       0.00000000          1
H         4.61369438       7.55273874       3.14067937         0.00000000       0.00000000       0.00000000          1
6
pbc=[F, F, F] list_num_par=6 energy=-0.00691110 iter=59 frozen=false Lattice="15.00000000 0.00000000 0.00000000 0.00000000 15.00000000 0.00000000 0.00000000 0.00000000 15.00000000" energy_frozen_part=0.00000000 Properties=species:S:1:pos:R:3:velocities:R:3:Z:I:1
H         0.96110384       6.24968638       2.04176204         0.00000000       0.00000000       0.00000000          1
H         9.09371463      12.95176507       3.81470267         0.00000000       0.00000000       0.00000000          1
H         7.92697084      14.13752315      11.27766211         0.00000000       0.00000000       0.00000000          1
H        12.70927520       0.13452534       4.48821331         0.00000000       0.00000000       0.00000000          1
H         4.91214361       5.22008041      12.69921191         0.00000000       0.00000000       0.00000000          1
H         6.26120823       8.55049027       3.95468727         0.00000000       0.00000000       0.00000000          1
6
pbc=[F, F, F] list_num_par=6 energy=-0.01026782 iter=69 frozen=false Lattice="15.00000000 0.00000000 0.00000000 0.00000000 15.00000000 0.00000000 0.00000000 0.00000000 15.00000000" energy_frozen_part=0.00000000 Properties=species:S:1:pos:R:3:velocities:R:3:Z:I:1
H         7.61035666       4.33779646       6.57967438         0.00000000       0.00000000       0.00000000          1
H         9.50160901       3.12919612       0.90777091         0.00000000       0.00000000       0.00000000          1
H         1.18282294       4.43779363       5.27225006         0.00000000       0.00000000       0.00000000          1
H         5.13278621       7.41079818      10.15031512         0.00000000       0.00000000       0.00000000          1
H         4.52896787      14.68267468      11.97050884         0.00000000       0.00000000       0.00000000          1
H         2.05081412       1.76309421      11.80055789         0.00000000       0.00000000       0.00000000          1
6
pbc=[F, F, F] list_num_par=6 energy=-0.01186910 iter=79 frozen=false Lattice="15.00000000 0.00000000 0.00000000 0.00000000 15.00000000 0.00000000 0.00000000 0.00000000 15.00000000" energy_frozen_part=0.00000000 Properties=species:S:1:pos:R:3:velocities:R:3:Z:I:1
H        13.45655868       6.43147167      11.75963008         0.00000000       0.00000000       0.00000000          1
H         7.68406051       0.50435807       6.44334146         0.00000000       0.00000000       0.00000000          1
H        12.42770436       9.51941454       8.48185056         0.00000000       0.00000000       0.00000000          1
H         5.63124158       8.92286062      14.84683188         0.00000000       0.00000000       0.00000000          1
H        10.54847582      14.14641961       2.61775119         0.00000000       0.00000000       0.00000000          1
H         5.78463650      10.10065248       2.47697374         0.00000000       0.00000000       0.00000000          1
6
pbc=[F, F, F] list_num_par=6 energy=-0.01474931 iter=89 frozen=false Lattice="15.00000000 0.00000000 0.00000000 0.00000000 15.00000000 0.00000000 0.00000000 0.00000000 15.00000000" energy_frozen_part=0.00000000 Properties=species:S:1:pos:R:3:velocities:R:3:Z:I:1
H         0.19867647       8.88740397       3.01499285         0.00000000       0.00000000       0.00000000          1
H         5.38494669       6.22657349      12.19906238         0.00000000       0.00000000       0.00000000          1
H         5.34712972      11.29569420       4.90091517         0.00000000       0.00000000       0.00000000          1
H        11.29953808       7.71716577      12.93053571         0.00000000       0.00000000       0.00000000          1
H         1.62127882      14.15243209       3.81036148         0.00000000       0.00000000       0.00000000          1
H        14.37027961       9.08677367       2.88415640         0.00000000       0.00000000       0.00000000          1
6
pbc=[F, F, F] list_num_par=6 energy=-0.01774972 iter=99 frozen=false Lattice="15.00000000 0.00000000 0.00000000 0.00000000 15.00000000 0.00000000 0.00000000 0.00000000 15.00000000" energy_frozen_part=0.00000000 Properties=species:S:1:pos:R:3:velocities:R:3:Z:I:1
H         9.67820400       2.11388499       1.83667616         0.00000000       0.00000000       0.00000000          1
H        13.66255974       8.25408603       8.16137093         0.00000000       0.00000000       0.00000000          1
H        13.10440364       9.82187426       4.05485518         0.00000000       0.00000000       0.00000000          1
H        14.78154915       7.41434154      14.07220861         0.00000000       0.00000000       0.00000000          1
H         4.02613825       2.03214194       0.11266304         0.00000000       0.00000000       0.00000000          1
H         8.81515435       4.32234275      12.86483531         0.00000000       0.00000000       0.00000000          1
6
pbc=[F, F, F] list_num_par=6 energy=-0.02008135 iter=109 frozen=false Lattice="15.00000000 0.00000000 0.00000000 0.00000000 15.00000000 0.00000000 0.00000000 0.00000000 15.00000000" energy_frozen_part=0.00000000 Properties=species:S:1:pos:R:3:velocities:R:3:Z:I:1
H        10.75590133       7.32144011       4.83049408         0.00000000       0.00000000       0.00000000          1
H         5.63797200       8.28190369      13.90911885         0.00000000       0.00000000       0.00000000          1
H         5.23489894       9.55243863       8.95771518         0.00000000       0.00000000       0.00000000          1
H        10.22533556       2.71685337       1.17620185         0.00000000       0.00000000       0.00000000          1
H         0.56142529       7.67243404       6.35304004         0.00000000       0.00000000       0.00000000          1
H         5.96628073       4.87448918       0.91519694         0.00000000       0.00000000       0.00000000          1
6
pbc=[F, F, F] list_num_par=6 energy=-0.02240610 iter=119 frozen=false Lattice="15.00000000 0.00000000 0.00000000 0.00000000 15.00000000 0.00000000 0.00000000 0.00000000 15.00000000" energy_frozen_part=0.00000000 Properties=species:S:1:pos:R:3:velocities:R:3:Z:I:1
H        10.53249239       7.20843813       4.58641546         0.00000000       0.00000000       0.00000000          1
H         5.52584582       8.37099913      14.19003074         0.00000000       0.00000000       0.00000000          1
H         5.39197853       9.55108560       9.13453256         0.00000000       0.00000000       0.00000000          1
H        10.07822027       2.66278817       1.32500074         0.00000000       0.00000000       0.00000000          1
H         0.71685448       7.52869229       5.99067950         0.00000000       0.00000000       0.00000000          1
H         6.08879608       4.90800954       0.91753183         0.00000000       0.00000000       0.00000000          1
6
pbc=[F, F, F] list_num_par=6 energy=-0.02915935 iter=129 frozen=false Lattice="15.00000000 0.00000000 0.00000000 0.00000000 15.00000000 0.00000000 0.00000000 0.00000000 15.00000000" energy_frozen_part=0.00000000 Properties=species:S:1:pos:R:3:velocities:R:3:Z:I:1
H         6.74633924       7.45183724      11.79805754         0.00000000       0.00000000       0.00000000          1
H         8.88793392       8.87470853       6.71765797         0.00000000       0.00000000       0.00000000          1
H         1.06277316       2.30321363       8.92543114         0.00000000       0.00000000       0.00000000          1
H         8.10944233       0.35952459       6.09570967         0.00000000       0.00000000       0.00000000          1
H         5.70532927      14.29637683       8.48258381         0.00000000       0.00000000       0.00000000          1
H        10.46860937       9.01823314      12.09788625         0.00000000       0.00000000       0.00000000          1
6
pbc=[F, F, F] list_num_par=6 energy=-0.03462223 iter=139 frozen=false Lattice="15.00000000 0.00000000 0.00000000 0.00000000 15.00000000 0.00000000 0.00000000 0.00000000 15.00000000" energy_frozen_part=0.00000000 Properties=species:S:1:pos:R:3:velocities:R:3:Z:I:1
H         2.99969157       1.25400441       6.22740249         0.00000000       0.00000000       0.00000000          1
H         3.42782322       6.29360016       7.71721479         0.00000000       0.00000000       0.00000000          1
H         9.00069249       2.50946913       7.56358647         0.00000000       0.00000000       0.00000000          1
H         4.29702222       8.44889189       4.44936183         0.00000000       0.00000000       0.00000000          1
H         2.83971976      13.52256147       6.42780134         0.00000000       0.00000000       0.00000000          1
H         5.77919469       0.81510907      13.18872715         0.00000000       0.00000000       0.00000000          1
6
pbc=[F, F, F] list_num_par=6 energy=-0.03846326 iter=149 frozen=false Lattice="15.00000000 0.00000000 0.00000000 0.00000000 15.00000000 0.00000000 0.00000000 0.00000000 15.00000000" energy_frozen_part=0.00000000 Properties=species:S:1:pos:R:3:velocities:R:3:Z:I:1
H        12.50524917      14.30610540       6.25543242         0.00000000       0.00000000       0.00000000          1
H        11.02531726       4.86043250       3.18477248         0.00000000       0.00000000       0.00000000          1
H         0.18978417       1.80609244       7.78939250         0.00000000       0.00000000       0.00000000          1
H         0.12032906       8.28607855      11.32051823         0.00000000       0.00000000       0.00000000          1
H        10.69022433       7.66598886       5.58256306         0.00000000       0.00000000       0.00000000          1
H         3.42868268       1.36703344      12.44733762         0.00000000       0.00000000       0.00000000          1
6
pbc=[F, F, F] list_num_par=6 energy=-0.04251651 iter=159 frozen=false Lattice="15.00000000 0.00000000 0.00000000 0.00000000 15.00000000 0.00000000 0.00000000 0.00000000 15.00000000" energy_frozen_part=0.00000000 Properties=species:S:1:pos:R:3:velocities:R:3:Z:I:1
H         3.16456696       9.17178557       5.52427573         0.00000000       0.00000000       0.00000000          1
H         6.82362965      12.95096012      14.80020702         0.00000000       0.00000000       0.00000000          1
H         7.13225893       9.47901616      13.81553597         0.00000000       0.00000000       0.00000000          1
H        14.28590987       4.48319207       5.69327957         0.00000000       0.00000000       0.00000000          1
H         0.31109941       4.71502241      12.80925851         0.00000000       0.00000000       0.00000000          1
H        11.90179534       6.84571180      12.62563355         0.00000000       0.00000000       0.00000000          1
6
pbc=[F, F, F] list_num_par=6 energy=-0.04635525 iter=169 frozen=false Lattice="15.00000000 0.00000000 0.00000000 0.00000000 15.00000000 0.00000000 0.00000000 0.00000000 15.00000000" energy_frozen_part=0.00000000 Properties=species:S:1:pos:R:3:velocities:R:3:Z:I:1
H         4.61660274      12.94642028       1.45326514         0.00000000       0.00000000       0.00000000          1
H        10.57050573       9.38479734      11.07587968         0.00000000       0.00000000       0.00000000          1
H         7.76201439       1.60206611      10.35217272         0.00000000       0.00000000       0.00000000          1
H         8.26665146       7.69305500       7.13462208         0.00000000       0.00000000       0.00000000          1
H        13.98750750      12.20234102      11.81751867         0.00000000       0.00000000       0.00000000          1
H         5.63384990       2.74131166       7.20553053         0.00000000       0.00000000       0.00000000          1
6
pbc=[F, F, F] list_num_par=6 energy=-0.05066111 iter=179 frozen=false Lattice="15.00000000 0.00000000 0.00000000 0.00000000 15.00000000 0.00000000 0.00000000 0.00000000 15.00000000" energy_frozen_part=0.00000000 Properties=species:S:1:pos:R:3:velocities:R:3:Z:I:1
H        12.63114240      12.78364139       1.30390111         0.00000000       0.00000000       0.00000000          1
H         3.11157922       7.12322187       8.35635694         0.00000000       0.00000000       0.00000000          1
H        10.83927565       0.98205395       9.52011160         0.00000000       0.00000000       0.00000000          1
H         6.20685429       9.88816023       5.77610589         0.00000000       0.00000000       0.00000000          1
H         0.88018584       3.80807590       4.95905770         0.00000000       0.00000000       0.00000000          1
H         7.31864658      11.52967392       8.84100399         0.00000000       0.00000000       0.00000000          1
6
pbc=[F, F, F] list_num_par=6 energy=-0.05568013 iter=189 frozen=false Lattice="15.00000000 0.00000000 0.00000000 0.00000000 15.00000000 0.00000000 0.00000000 0.00000000 15.00000000" energy_frozen_part=0.00000000 Properties=species:S:1:pos:R:3:velocities:R:3:Z:I:1
H         8.59815931       5.16573713       8.39815117         0.00000000       0.00000000       0.00000000          1
H         4.18436741       8.24732429       9.91595789         0.00000000       0.00000000       0.00000000          1
H        12.36449230       8.44511798       4.37942514         0.00000000       0.00000000       0.00000000          1
H         1.14631077       0.57131873       6.56289472         0.00000000       0.00000000       0.00000000          1
H        11.44712374       9.97614912       7.36055712         0.00000000       0.00000000       0.00000000          1
H        14.02431358      11.63391337      14.54318511         0.00000000       0.00000000       0.00000000          1
6
pbc=[F, F, F] list_num_par=6 energy=-0.06688221 iter=199 frozen=false Lattice="15.00000000 0.00000000 0.00000000 0.00000000 15.00000000 0.00000000 0.00000000 0.00000000 15.00000000" energy_frozen_part=0.00000000 Properties=species:S:1:pos:R:3:velocities:R:3:Z:I:1
H         6.62988004       6.82601546       5.30424860         0.00000000       0.00000000       0.00000000          1
H        14.43656565       9.51550057       0.67345914         0.00000000       0.00000000       0.00000000          1
H         4.38509222       8.67866856      13.78028323         0.00000000       0.00000000       0.00000000          1
H        10.23976784       9.81299532       5.26726318         0.00000000       0.00000000       0.00000000          1
H         5.35101735       6.31830841       8.44241362         0.00000000       0.00000000       0.00000000          1
H         2.82808872      10.33471241       1.87064438         0.00000000       0.00000000       0.00000000          1
6
pbc=[F, F, F] list_num_par=6 energy=-0.07503886 iter=209 frozen=false Lattice="15.00000000 0.00000000 0.00000000 0.00000000 15.00000000 0.00000000 0.00000000 0.00000000 15.00000000" energy_frozen_part=0.00000000 Properties=species:S:1:pos:R:3:velocities:R:3:Z:I:1
H         2.60540427      14.19397292      13.30259964         0.00000000       0.00000000       0.00000000          1
H         3.58652682       1.15205345       4.90381430         0.00000000       0.00000000       0.00000000          1
H        11.16963535       1.68271553       0.03947678         0.00000000       0.00000000       0.00000000          1
H         0.02489093       0.19653004       1.32540301         0.00000000       0.00000000       0.00000000          1
H         4.86044750      13.04557038      13.93695072         0.00000000       0.00000000       0.00000000          1
H         9.44469102       3.74488978      13.13433129         0.00000000       0.00000000       0.00000000          1
6
pbc=[F, F, F] list_num_par=6 energy=-0.07898999 iter=219 frozen=false Lattice="15.00000000 0.00000000 0.00000000 0.00000000 15.00000000 0.00000000 0.00000000 0.00000000 15.00000000" energy_frozen_part=0.00000000 Properties=species:S:1:pos:R:3:velocities:R:3:Z:I:1
H         6.63188227       6.91325904       5.30117500         0.00000000       0.00000000       0.00000000          1
H        14.35906269       9.50244892       0.70745625         0.00000000       0.00000000       0.00000000          1
H         4.38592235       8.68508588      13.84356932         0.00000000       0.00000000       0.00000000          1
H        10.42368384       9.79042824       5.27075665         0.00000000       0.00000000       0.00000000          1
H         5.37824627       6.44464098       8.28322633         0.00000000       0.00000000       0.00000000          1
H         2.78272678      10.21103844       1.76749276         0.00000000       0.00000000       0.00000000          1
6
pbc=[F, F, F] list_num_par=6 energy=-0.08400312 iter=229 frozen=false Lattice="15.00000000 0.00000000 0.00000000 0.00000000 15.00000000 0.00000000 0.00000000 0.00000000 15.00000000" energy_frozen_part=0.00000000 Properties=species:S:1:pos:R:3:velocities:R:3:Z:I:1
H        14.20815489       0.01995502       5.61532641         0.00000000       0.00000000       0.00000000          1
H         8.17535738       8.76503825      13.54519906         0.00000000       0.00000000       0.00000000          1
H         8.01794306       6.60002499      11.35199173         0.00000000       0.00000000       0.00000000          1
H         8.49504400       4.63028316       5.43982398         0.00000000       0.00000000       0.00000000          1
H         1.54723215       2.41471761       1.62729185         0.00000000       0.00000000       0.00000000          1
H        14.61409265       5.52770401       0.25794423         0.00000000       0.00000000       0.00000000          1
6
pbc=[F, F, F] list_num_par=6 energy=-0.08714766 iter=239 frozen=false Lattice="15.00000000 0.00000000 0.00000000 0.00000000 15.00000000 0.00000000 0.00000000 0.00000000 15.00000000" energy_frozen_part=0.00000000 Properties=species:S:1:pos:R:3:velocities:R:3:Z:I:1
H         6.07543804       2.29689545       7.65066124         0.00000000       0.00000000       0.00000000          1
H         8.07729740       3.77404530       8.30289734         0.00000000       0.00000000       0.00000000          1
H         2.82399946       5.68478983      11.41096327         0.00000000       0.00000000       0.00000000          1
H         7.04749109       7.76167312       1.09300888         0.00000000       0.00000000       0.00000000          1
H         0.42664268      14.56451158      14.96799040         0.00000000       0.00000000       0.00000000          1
H         4.47549327       7.52143718       8.26013152         0.00000000       0.00000000       0.00000000          1
6
pbc=[F, F, F] list_num_par=6 energy=-0.09091313 iter=249 frozen=false Lattice="15.00000000 0.00000000 0.00000000 0.00000000 15.00000000 0.00000000 0.00000000 0.00000000 15.00000000" energy_frozen_part=0.00000000 Properties=species:S:1:pos:R:3:velocities:R:3:Z:I:1
H        12.92969055       7.26159421       6.17990296         0.00000000       0.00000000       0.00000000          1
H        12.75914320       4.91824104       8.08355207         0.00000000       0.00000000       0.00000000          1
H         8.24410380       1.59204648       5.51806317         0.00000000       0.00000000       0.00000000          1
H        14.75091034      11.63016399       2.31391714         0.00000000       0.00000000       0.00000000          1
H         1.81277530      13.10146027      13.12000940         0.00000000       0.00000000       0.00000000          1
H        14.99994929      11.34483963      14.73371020         0.00000000       0.00000000       0.00000000          1
6
pbc=[F, F, F] list_num_par=6 energy=-0.09369181 iter=259 frozen=false Lattice="15.00000000 0.00000000 0.00000000 0.00000000 15.00000000 0.00000000 0.00000000 0.00000000 15.00000000" energy_frozen_part=0.00000000 Properties=species:S:1:pos:R:3:velocities:R:3:Z:I:1
H         1.53161336       8.61478504       6.63263254         0.00000000       0.00000000       0.00000000          1
H         7.76151720       5.09369475       3.92765489         0.00000000       0.00000000       0.00000000          1
H        10.01280994       5.59646616      12.16815388         0.00000000       0.00000000       0.00000000          1
H         0.44500556       7.63513183       0.03075585         0.00000000       0.00000000       0.00000000          1
H         0.14729977       7.65293342       9.10754063         0.00000000       0.00000000       0.00000000          1
H         4.20992301       4.20812184      13.70602690         0.00000000       0.00000000       0.00000000          1
6
pbc=[F, F, F] list_num_par=6 energy=-0.09985317 iter=269 frozen=false Lattice="15.00000000 0.00000000 0.00000000 0.00000000 15.00000000 0.00000000 0.00000000 0.00000000 15.00000000" energy_frozen_part=0.00000000 Properties=species:S:1:pos:R:3:velocities:R:3:Z:I:1
H        12.06418582      11.68378573       0.30904717         0.00000000       0.00000000       0.00000000          1
H        14.49106625       1.28933648       4.78425446         0.00000000       0.00000000       0.00000000          1
H         1.08158904       5.41716921       4.71601441         0.00000000       0.00000000       0.00000000          1
H         3.91395322       1.23473467      14.34780672         0.00000000       0.00000000       0.00000000          1
H        11.58525002       8.87749239       0.83374569         0.00000000       0.00000000       0.00000000          1
H         0.57486188       0.09645274       2.77261231         0.00000000       0.00000000       0.00000000          1
6
pbc=[F, F, F] list_num_par=6 energy=-0.10188976 iter=279 frozen=false Lattice="15.00000000 0.00000000 0.00000000 0.00000000 15.00000000 0.00000000 0.00000000 0.00000000 15.00000000" energy_frozen_part=0.00000000 Properties=species:S:1:pos:R:3:velocities:R:3:Z:I:1
H         0.44757588      11.12929205      14.71766923         0.00000000       0.00000000       0.00000000          1
H         5.71582605       0.35703900       2.92960847         0.00000000       0.00000000       0.00000000          1
H         6.61276730       1.63691338       7.96653886         0.00000000       0.00000000       0.00000000          1
H         3.04184701       5.82918331       0.88294535         0.00000000       0.00000000       0.00000000          1
H         1.69002889      11.25938427      12.33467753         0.00000000       0.00000000       0.00000000          1
H        11.78482388       0.63443637       8.55320130         0.00000000       0.00000000       0.00000000          1
6
pbc=[F, F, F] list_num_par=6 energy=-0.10442048 iter=289 frozen=false Lattice="15.00000000 0.00000000 0.00000000 0.00000000 15.00000000 0.00000000 0.00000000 0.00000000 15.00000000" energy_frozen_part=0.00000000 Properties=species:S:1:pos:R:3:velocities:R:3:Z:I:1
H         0.52849854       9.01123538      11.76435926         0.00000000       0.00000000       0.00000000          1
H        10.55749768       2.22797008       8.03920319         0.00000000       0.00000000       0.00000000          1
H         6.47957597       4.96160156       6.01386604         0.00000000       0.00000000       0.00000000          1
H         4.58170396       6.07333335       8.61556566         0.00000000       0.00000000       0.00000000          1
H         6.92128138      14.88043541      13.06488973         0.00000000       0.00000000       0.00000000          1
H        10.32908243       3.30219090       4.46455639         0.00000000       0.00000000       0.00000000          1
6
pbc=[F, F, F] list_num_par=6 energy=-0.10754596 iter=299 frozen=false Lattice="15.00000000 0.00000000 0.00000000 0.00000000 15.00000000 0.00000000 0.00000000 0.00000000 15.00000000" energy_frozen_part=0.00000000 Properties=species:S:1:pos:R:3:velocities:R:3:Z:I:1
H         5.80633897       5.27488979       4.54268485         0.00000000       0.00000000       0.00000000          1
H         2.25361759       7.12428819       3.35546096         0.00000000       0.00000000       0.00000000          1
H         8.74290831       2.90041804       8.42696787         0.00000000       0.00000000       0.00000000          1
H         7.06221167       9.40105796      12.64999130         0.00000000       0.00000000       0.00000000          1
H        12.37269796       4.75690260       7.48039683         0.00000000       0.00000000       0.00000000          1
H         4.43088333       7.17035413       7.05958905         0.00000000       0.00000000       0.00000000          1
6
pbc=[F, F, F] list_num_par=6 energy=-0.11008156 iter=309 frozen=false Lattice="15.00000000 0.00000000 0.00000000 0.00000000 15.00000000 0.00000000 0.00000000 0.00000000 15.00000000" energy_frozen_part=0.00000000 Properties=species:S:1:pos:R:3:velocities:R:3:Z:I:1
H         1.77432182      13.95524932       7.49845271         0.00000000       0.00000000       0.00000000          1
H         4.17785215      14.62220797       9.65938893         0.00000000       0.00000000       0.00000000          1