6
pbc=[F, F, F] list_num_par=6 energy=-1.26974174 iter=20000 frozen=false Lattice="15.00000000 0.00000000 0.00000000 0.00000000 15.00000000 0.00000000 0.00000000 0.00000000 15.00000000" energy_frozen_part=0.00000000 Properties=species:S:1:pos:R:3:velocities:R:3:Z:I:1
H         9.40861176       6.87770028       3.84230321         0.00000000       0.00000000       0.00000000          1
H        11.45438518       7.71270635       5.55164403         0.00000000       0.00000000       0.00000000          1
H        11.98118761       5.82582044       3.56005770         0.00000000       0.00000000       0.00000000          1
H        11.96024291       5.05417680       6.24490349         0.00000000       0.00000000       0.00000000          1
H         9.91445982       4.21916747       4.53556381         0.00000000       0.00000000       0.00000000          1
H         9.38765882       6.10606208       6.52714890         0.00000000       0.00000000       0.00000000          1
6
pbc=[F, F, F] list_num_par=6 energy=-1.26974174 iter=20000 frozen=false Lattice="15.00000000 0.00000000 0.00000000 0.00000000 15.00000000 0.00000000 0.00000000 0.00000000 15.00000000" energy_frozen_part=0.00000000 Properties=species:S:1:pos:R:3:velocities:R:3:Z:I:1
H         9.08025040       6.81661629       6.12877392         0.00000000       0.00000000       0.00000000          1
H        11.78703997       7.32725909       6.59438832         0.00000000       0.00000000       0.00000000          1
H        10.81057520       7.24709087       3.97820949         0.00000000       0.00000000       0.00000000          1
H        12.47659761       5.20757552       4.91041937         0.00000000       0.00000000       0.00000000          1
H         9.76980438       4.69692216       4.44481114         0.00000000       0.00000000       0.00000000          1
H        10.74626580       4.77708714       7.06098226         0.00000000       0.00000000       0.00000000          1
6
pbc=[F, F, F] list_num_par=6 energy=-1.26974174 iter=20000 frozen=false Lattice="15.00000000 0.00000000 0.00000000 0.00000000 15.00000000 0.00000000 0.00000000 0.00000000 15.00000000" energy_frozen_part=0.00000000 Properties=species:S:1:pos:R:3:velocities:R:3:Z:I:1
H         9.40845377       6.87771289       3.84251332         0.00000000       0.00000000       0.00000000          1
H        11.45453380       7.71270648       5.55150022         0.00000000       0.00000000       0.00000000          1
H        11.98095553       5.82574311       3.55988344         0.00000000       0.00000000       0.00000000          1
H        11.96042294       5.05418366       6.24475515         0.00000000       0.00000000       0.00000000          1
H         9.91434805       4.21918522       4.53577369         0.00000000       0.00000000       0.00000000          1
H         9.38791486       6.10614586       6.52739056         0.00000000       0.00000000       0.00000000          1
6
pbc=[F, F, F] list_num_par=6 energy=-1.26974174 iter=20000 frozen=false Lattice="15.00000000 0.00000000 0.00000000 0.00000000 15.00000000 0.00000000 0.00000000 0.00000000 15.00000000" energy_frozen_part=0.00000000 Properties=species:S:1:pos:R:3:velocities:R:3:Z:I:1
H         9.40846640       6.87774981       3.84250430         0.00000000       0.00000000       0.00000000          1
H        11.45443511       7.71278700       5.55160405         0.00000000       0.00000000       0.00000000          1
H        11.98102441       5.82590217       3.55996400         0.00000000       0.00000000       0.00000000          1
H        11.96041307       5.05426616       6.24481555         0.00000000       0.00000000       0.00000000          1
H         9.91444145       4.21923092       4.53571394         0.00000000       0.00000000       0.00000000          1
H         9.38785055       6.10611121       6.52735632         0.00000000       0.00000000       0.00000000          1
6
pbc=[F, F, F] list_num_par=6 energy=-1.26974174 iter=20000 frozen=false Lattice="15.00000000 0.00000000 0.00000000 0.00000000 15.00000000 0.00000000 0.00000000 0.00000000 15.00000000" energy_frozen_part=0.00000000 Properties=species:S:1:pos:R:3:velocities:R:3:Z:I:1
H         9.40837196       6.87770895       3.84255448         0.00000000       0.00000000       0.00000000          1
H        11.45431986       7.71277217       5.55166128         0.00000000       0.00000000       0.00000000          1
H        11.98097428       5.82596038       3.55996330         0.00000000       0.00000000       0.00000000          1
H        11.96038566       5.05424446       6.24479177         0.00000000       0.00000000       0.00000000          1
H         9.91444429       4.21919052       4.53568290         0.00000000       0.00000000       0.00000000          1
H         9.38779414       6.10600078       6.52738349         0.00000000       0.00000000       0.00000000          1
6
pbc=[F, F, F] list_num_par=6 energy=-1.26974174 iter=20000 frozen=false Lattice="15.00000000 0.00000000 0.00000000 0.00000000 15.00000000 0.00000000 0.00000000 0.00000000 15.00000000" energy_frozen_part=0.00000000 Properties=species:S:1:pos:R:3:velocities:R:3:Z:I:1
H         9.08021341       6.81658442       6.12875141         0.00000000       0.00000000       0.00000000          1
H        11.78699373       7.32730689       6.59438202         0.00000000       0.00000000       0.00000000          1
H        10.81054226       7.24708122       3.97819558         0.00000000       0.00000000       0.00000000          1
H        12.47660525       5.20761488       4.91044861         0.00000000       0.00000000       0.00000000          1
H         9.76982872       4.69689444       4.44482585         0.00000000       0.00000000       0.00000000          1
H        10.74627536       4.77712268       7.06101033         0.00000000       0.00000000       0.00000000          1
6
pbc=[F, F, F] list_num_par=6 energy=-1.26974174 iter=20000 frozen=false Lattice="15.00000000 0.00000000 0.00000000 0.00000000 15.00000000 0.00000000 0.00000000 0.00000000 15.00000000" energy_frozen_part=0.00000000 Properties=species:S:1:pos:R:3:velocities:R:3:Z:I:1
H         9.40860043       6.87768549       3.84228552         0.00000000       0.00000000       0.00000000          1
H        11.45436462       7.71273294       5.55162092         0.00000000       0.00000000       0.00000000          1
H        11.98119217       5.82581785       3.56006470         0.00000000       0.00000000       0.00000000          1
H        11.96024982       5.05422188       6.24492451         0.00000000       0.00000000       0.00000000          1
H         9.91447341       4.21917161       4.53559710         0.00000000       0.00000000       0.00000000          1
H         9.38765641       6.10608618       6.52714718         0.00000000       0.00000000       0.00000000          1
6
pbc=[F, F, F] list_num_par=6 energy=-1.26974174 iter=20000 frozen=false Lattice="15.00000000 0.00000000 0.00000000 0.00000000 15.00000000 0.00000000 0.00000000 0.00000000 15.00000000" energy_frozen_part=0.00000000 Properties=species:S:1:pos:R:3:velocities:R:3:Z:I:1
H         9.40833656       6.87782204       3.84253909         0.00000000       0.00000000       0.00000000          1
H        11.45431501       7.71290434       5.55159423         0.00000000       0.00000000       0.00000000          1
H        11.98089578       5.82598314       3.55998522         0.00000000       0.00000000       0.00000000          1
H        11.96031337       5.05440285       6.24485885         0.00000000       0.00000000       0.00000000          1
H         9.91433508       4.21931126       4.53579903         0.00000000       0.00000000       0.00000000          1
H         9.38774712       6.10624221       6.52740738         0.00000000       0.00000000       0.00000000          1
6
pbc=[F, F, F] list_num_par=6 energy=-1.26974174 iter=20000 frozen=false Lattice="15.00000000 0.00000000 0.00000000 0.00000000 15.00000000 0.00000000 0.00000000 0.00000000 15.00000000" energy_frozen_part=0.00000000 Properties=species:S:1:pos:R:3:velocities:R:3:Z:I:1
H         9.40857092       6.87775635       3.84228708         0.00000000       0.00000000       0.00000000          1
H        11.45436773       7.71279702       5.55158578         0.00000000       0.00000000       0.00000000          1
H        11.98112464       5.82580538       3.56007491         0.00000000       0.00000000       0.00000000          1
H        11.96015993       5.05428386       6.24496013         0.00000000       0.00000000       0.00000000          1
H         9.91436461       4.21924708       4.53566379         0.00000000       0.00000000       0.00000000          1
H         9.38761079       6.10624086       6.52717084         0.00000000       0.00000000       0.00000000          1
6
pbc=[F, F, F] list_num_par=6 energy=-1.26974174 iter=20000 frozen=false Lattice="15.00000000 0.00000000 0.00000000 0.00000000 15.00000000 0.00000000 0.00000000 0.00000000 15.00000000" energy_frozen_part=0.00000000 Properties=species:S:1:pos:R:3:velocities:R:3:Z:I:1
H         9.08023675       6.81661003       6.12873932         0.00000000       0.00000000       0.00000000          1
H        11.78701718       7.32731621       6.59434352         0.00000000       0.00000000       0.00000000          1
H        10.81057498       7.24706867       3.97816952         0.00000000       0.00000000       0.00000000          1
H        12.47662205       5.20759921       4.91043556         0.00000000       0.00000000       0.00000000          1
H         9.76983530       4.69689751       4.44482541         0.00000000       0.00000000       0.00000000          1
H        10.74628511       4.77713908       7.06100206         0.00000000       0.00000000       0.00000000          1
6
pbc=[F, F, F] list_num_par=6 energy=-1.26974174 iter=20000 frozen=false Lattice="15.00000000 0.00000000 0.00000000 0.00000000 15.00000000 0.00000000 0.00000000 0.00000000 15.00000000" energy_frozen_part=0.00000000 Properties=species:S:1:pos:R:3:velocities:R:3:Z:I:1
H         9.08025097       6.81664143       6.12876357         0.00000000       0.00000000       0.00000000          1
H        11.78704911       7.32726037       6.59437281         0.00000000       0.00000000       0.00000000          1
H        10.81058634       7.24708894       3.97819805         0.00000000       0.00000000       0.00000000          1
H        12.47658356       5.20755841       4.91042493         0.00000000       0.00000000       0.00000000          1
H         9.76979109       4.69693641       4.44481400         0.00000000       0.00000000       0.00000000          1
H        10.74624972       4.77710095       7.06099161         0.00000000       0.00000000       0.00000000          1
6
pbc=[F, F, F] list_num_par=6 energy=-1.26974174 iter=20000 frozen=false Lattice="15.00000000 0.00000000 0.00000000 0.00000000 15.00000000 0.00000000 0.00000000 0.00000000 15.00000000" energy_frozen_part=0.00000000 Properties=species:S:1:pos:R:3:velocities:R:3:Z:I:1
H         9.40838374       6.87785890       3.84248229         0.00000000       0.00000000       0.00000000          1
H        11.45436192       7.71283788       5.55159584         0.00000000       0.00000000       0.00000000          1
H        11.98091192       5.82593169       3.55996743         0.00000000       0.00000000       0.00000000          1
H        11.96024633       5.05431041       6.24482575         0.00000000       0.00000000       0.00000000          1
H         9.91427066       4.21932654       4.53571510         0.00000000       0.00000000       0.00000000          1
H         9.38771712       6.10624392       6.52733993         0.00000000       0.00000000       0.00000000          1
6
pbc=[F, F, F] list_num_par=6 energy=-1.26974174 iter=20000 frozen=false Lattice="15.00000000 0.00000000 0.00000000 0.00000000 15.00000000 0.00000000 0.00000000 0.00000000 15.00000000" energy_frozen_part=0.00000000 Properties=species:S:1:pos:R:3:velocities:R:3:Z:I:1
H         9.40834134       6.87780164       3.84253521         0.00000000       0.00000000       0.00000000          1
H        11.45430605       7.71290093       5.55160836         0.00000000       0.00000000       0.00000000          1
H        11.98091474       5.82597729       3.56000610         0.00000000       0.00000000       0.00000000          1
H        11.96031508       5.05440247       6.24487536         0.00000000       0.00000000       0.00000000          1
H         9.91434926       4.21929833       4.53580402         0.00000000       0.00000000       0.00000000          1
H         9.38773773       6.10622797       6.52741113         0.00000000       0.00000000       0.00000000          1
6
pbc=[F, F, F] list_num_par=6 energy=-1.26974174 iter=20000 frozen=false Lattice="15.00000000 0.00000000 0.00000000 0.00000000 15.00000000 0.00000000 0.00000000 0.00000000 15.00000000" energy_frozen_part=0.00000000 Properties=species:S:1:pos:R:3:velocities:R:3:Z:I:1
H         9.40858354       6.87776054       3.84228368         0.00000000       0.00000000       0.00000000          1
H        11.45439438       7.71278667       5.55158196         0.00000000       0.00000000       0.00000000          1
H        11.98113715       5.82579568       3.56008282         0.00000000       0.00000000       0.00000000          1
H        11.96017800       5.05427359       6.24496234         0.00000000       0.00000000       0.00000000          1
H         9.91436769       4.21924884       4.53566129         0.00000000       0.00000000       0.00000000          1
H         9.38762762       6.10624507       6.52716926         0.00000000       0.00000000       0.00000000          1
6
pbc=[F, F, F] list_num_par=6 energy=-1.26974174 iter=20000 frozen=false Lattice="15.00000000 0.00000000 0.00000000 0.00000000 15.00000000 0.00000000 0.00000000 0.00000000 15.00000000" energy_frozen_part=0.00000000 Properties=species:S:1:pos:R:3:velocities:R:3:Z:I:1
H         9.40859767       6.87767418       3.84225287         0.00000000       0.00000000       0.00000000          1
H        11.45436706       7.71276923       5.55156149         0.00000000       0.00000000       0.00000000          1
H        11.98118130       5.82579195       3.56005833         0.00000000       0.00000000       0.00000000          1
H        11.96023027       5.05427383       6.24494093         0.00000000       0.00000000       0.00000000          1
H         9.91445441       4.21917995       4.53564449         0.00000000       0.00000000       0.00000000          1
H         9.38764270       6.10615763       6.52714172         0.00000000       0.00000000       0.00000000          1
6
pbc=[F, F, F] list_num_par=6 energy=-1.26974174 iter=20000 frozen=false Lattice="15.00000000 0.00000000 0.00000000 0.00000000 15.00000000 0.00000000 0.00000000 0.00000000 15.00000000" energy_frozen_part=0.00000000 Properties=species:S:1:pos:R:3:velocities:R:3:Z:I:1
H         9.40833360       6.87779271       3.84253852         0.00000000       0.00000000       0.00000000          1
H        11.45430324       7.71290633       5.55159766         0.00000000       0.00000000       0.00000000          1
H        11.98090999       5.82597241       3.56000532         0.00000000       0.00000000       0.00000000          1
H        11.96031378       5.05440700       6.24487666         0.00000000       0.00000000       0.00000000          1
H         9.91433941       4.21929838       4.53580960         0.00000000       0.00000000       0.00000000          1
H         9.38774381       6.10622902       6.52741241         0.00000000       0.00000000       0.00000000          1
6
pbc=[F, F, F] list_num_par=6 energy=-1.26974174 iter=20000 frozen=false Lattice="15.00000000 0.00000000 0.00000000 0.00000000 15.00000000 0.00000000 0.00000000 0.00000000 15.00000000" energy_frozen_part=0.00000000 Properties=species:S:1:pos:R:3:velocities:R:3:Z:I:1
H         9.40860038       6.87768330       3.84225929         0.00000000       0.00000000       0.00000000          1
H        11.45436922       7.71276097       5.55157050         0.00000000       0.00000000       0.00000000          1
H        11.98118738       5.82579023       3.56006929         0.00000000       0.00000000       0.00000000          1
H        11.96022560       5.05425819       6.24494852         0.00000000       0.00000000       0.00000000          1
H         9.91445094       4.21918834       4.53563324         0.00000000       0.00000000       0.00000000          1
H         9.38764539       6.10615575       6.52713851         0.00000000       0.00000000       0.00000000          1
6
pbc=[F, F, F] list_num_par=6 energy=-1.26974174 iter=20000 frozen=false Lattice="15.00000000 0.00000000 0.00000000 0.00000000 15.00000000 0.00000000 0.00000000 0.00000000 15.00000000" energy_frozen_part=0.00000000 Properties=species:S:1:pos:R:3:velocities:R:3:Z:I:1
H         9.08022243       6.81656928       6.12875102         0.00000000       0.00000000       0.00000000          1
H        11.78699676       7.32730730       6.59435173         0.00000000       0.00000000       0.00000000          1
H        10.81054091       7.24706812       3.97817692         0.00000000       0.00000000       0.00000000          1
H        12.47661624       5.20760877       4.91043404         0.00000000       0.00000000       0.00000000          1
H         9.76983720       4.69688152       4.44482535         0.00000000       0.00000000       0.00000000          1
H        10.74629922       4.77711978       7.06100101         0.00000000       0.00000000       0.00000000          1
6
pbc=[F, F, F] list_num_par=6 energy=-1.26974174 iter=20000 frozen=false Lattice="15.00000000 0.00000000 0.00000000 0.00000000 15.00000000 0.00000000 0.00000000 0.00000000 15.00000000" energy_frozen_part=0.00000000 Properties=species:S:1:pos:R:3:velocities:R:3:Z:I:1
H         9.40837672       6.87785813       3.84248928         0.00000000       0.00000000       0.00000000          1
H        11.45435137       7.71284031       5.55160749         0.00000000       0.00000000       0.00000000          1
H        11.98090673       5.82593442       3.55997418         0.00000000       0.00000000       0.00000000          1
H        11.96023129       5.05430094       6.24482625         0.00000000       0.00000000       0.00000000          1
H         9.91425359       4.21932376       4.53570842         0.00000000       0.00000000       0.00000000          1
H         9.38770798       6.10623504       6.52735019         0.00000000       0.00000000       0.00000000          1
6
pbc=[F, F, F] list_num_par=6 energy=-1.26974174 iter=20000 frozen=false Lattice="15.00000000 0.00000000 0.00000000 0.00000000 15.00000000 0.00000000 0.00000000 0.00000000 15.00000000" energy_frozen_part=0.00000000 Properties=species:S:1:pos:R:3:velocities:R:3:Z:I:1
H         9.40838502       6.87757391       3.84264095         0.00000000       0.00000000       0.00000000          1
H        11.45456330       7.71252726       5.55153495         0.00000000       0.00000000       0.00000000          1
H        11.98082191       5.82547306       3.55996287         0.00000000       0.00000000       0.00000000          1
H        11.96033746       5.05400337       6.24486751         0.00000000       0.00000000       0.00000000          1
H         9.91416740       4.21905026       4.53598313         0.00000000       0.00000000       0.00000000          1
H         9.38789685       6.10611400       6.52754626         0.00000000       0.00000000       0.00000000          1
6
pbc=[F, F, F] list_num_par=6 energy=-1.26974174 iter=20000 frozen=false Lattice="15.00000000 0.00000000 0.00000000 0.00000000 15.00000000 0.00000000 0.00000000 0.00000000 15.00000000" energy_frozen_part=0.00000000 Properties=species:S:1:pos:R:3:velocities:R:3:Z:I:1
H         9.08024076       6.81661412       6.12875850         0.00000000       0.00000000       0.00000000          1
H        11.78702916       7.32727673       6.59437194         0.00000000       0.00000000       0.00000000          1
H        10.81057374       7.24707601       3.97819617         0.00000000       0.00000000       0.00000000          1
H        12.47660310       5.20757766       4.91043066         0.00000000       0.00000000       0.00000000          1
H         9.76980749       4.69691002       4.44481680         0.00000000       0.00000000       0.00000000          1
H        10.74626061       4.77710591       7.06098950         0.00000000       0.00000000       0.00000000          1
6
pbc=[F, F, F] list_num_par=6 energy=-1.26974174 iter=20000 frozen=false Lattice="15.00000000 0.00000000 0.00000000 0.00000000 15.00000000 0.00000000 0.00000000 0.00000000 15.00000000" energy_frozen_part=0.00000000 Properties=species:S:1:pos:R:3:velocities:R:3:Z:I:1
H         9.40844594       6.87770289       3.84252969         0.00000000       0.00000000       0.00000000          1
H        11.45452425       7.71270597       5.55150454         0.00000000       0.00000000       0.00000000          1
H        11.98095143       5.82575319       3.55988078         0.00000000       0.00000000       0.00000000          1
H        11.96042825       5.05418447       6.24475373         0.00000000       0.00000000       0.00000000          1
H         9.91435741       4.21917708       4.53577730         0.00000000       0.00000000       0.00000000          1
H         9.38792099       6.10612727       6.52740041         0.00000000       0.00000000       0.00000000          1
6
pbc=[F, F, F] list_num_par=6 energy=-1.26974174 iter=20000 frozen=false Lattice="15.00000000 0.00000000 0.00000000 0.00000000 15.00000000 0.00000000 0.00000000 0.00000000 15.00000000" energy_frozen_part=0.00000000 Properties=species:S:1:pos:R:3:velocities:R:3:Z:I:1
H         9.40859514       6.87767815       3.84224455         0.00000000       0.00000000       0.00000000          1
H        11.45435454       7.71276623       5.55157138         0.00000000       0.00000000       0.00000000          1
H        11.98118762       5.82580863       3.56006356         0.00000000       0.00000000       0.00000000          1
H        11.96021458       5.05426396       6.24493663         0.00000000       0.00000000       0.00000000          1
H         9.91446070       4.21917672       4.53560304         0.00000000       0.00000000       0.00000000          1
H         9.38762645       6.10613491       6.52711485         0.00000000       0.00000000       0.00000000          1
6
pbc=[F, F, F] list_num_par=6 energy=-1.26974174 iter=20000 frozen=false Lattice="15.00000000 0.00000000 0.00000000 0.00000000 15.00000000 0.00000000 0.00000000 0.00000000 15.00000000" energy_frozen_part=0.00000000 Properties=species:S:1:pos:R:3:velocities:R:3:Z:I:1
H         9.40861038       6.87770151       3.84229532         0.00000000       0.00000000       0.00000000          1
H        11.45439025       7.71272147       5.55162676         0.00000000       0.00000000       0.00000000          1
H        11.98118714       5.82581750       3.56005577         0.00000000       0.00000000       0.00000000          1
H        11.96024348       5.05418654       6.24490695         0.00000000       0.00000000       0.00000000          1
H         9.91446461       4.21917774       4.53557599         0.00000000       0.00000000       0.00000000          1
H         9.38766517       6.10607719       6.52715202         0.00000000       0.00000000       0.00000000          1
6
pbc=[F, F, F] list_num_par=6 energy=-1.26974174 iter=20000 frozen=false Lattice="15.00000000 0.00000000 0.00000000 0.00000000 15.00000000 0.00000000 0.00000000 0.00000000 15.00000000" energy_frozen_part=0.00000000 Properties=species:S:1:pos:R:3:velocities:R:3:Z:I:1
H         9.40832643       6.87778108       3.84255001         0.00000000       0.00000000       0.00000000          1
H        11.45429905       7.71292387       5.55159423         0.00000000       0.00000000       0.00000000          1
H        11.98089482       5.82596444       3.56002078         0.00000000       0.00000000       0.00000000          1
H        11.96031862       5.05444281       6.24490621         0.00000000       0.00000000       0.00000000          1
H         9.91434794       4.21929159       4.53586523         0.00000000       0.00000000       0.00000000          1
H         9.38774376       6.10625077       6.52743452         0.00000000       0.00000000       0.00000000          1
6
pbc=[F, F, F] list_num_par=6 energy=-1.26974174 iter=20000 frozen=false Lattice="15.00000000 0.00000000 0.00000000 0.00000000 15.00000000 0.00000000 0.00000000 0.00000000 15.00000000" energy_frozen_part=0.00000000 Properties=species:S:1:pos:R:3:velocities:R:3:Z:I:1
H         9.40837408       6.87770241       3.84241392         0.00000000       0.00000000       0.00000000          1
H        11.45425066       7.71287282       5.55156275         0.00000000       0.00000000       0.00000000          1
H        11.98098338       5.82593678       3.56001137         0.00000000       0.00000000       0.00000000          1
H        11.96028804       5.05439724       6.24489188         0.00000000       0.00000000       0.00000000          1
H         9.91441792       4.21922875       4.53574103         0.00000000       0.00000000       0.00000000          1
H         9.38768343       6.10616625       6.52729636         0.00000000       0.00000000       0.00000000          1
6
pbc=[F, F, F] list_num_par=6 energy=-1.26974174 iter=20000 frozen=false Lattice="15.00000000 0.00000000 0.00000000 0.00000000 15.00000000 0.00000000 0.00000000 0.00000000 15.00000000" energy_frozen_part=0.00000000 Properties=species:S:1:pos:R:3:velocities:R:3:Z:I:1
H         9.08025458       6.81660604       6.12877532         0.00000000       0.00000000       0.00000000          1
H        11.78704738       7.32726082       6.59438525         0.00000000       0.00000000       0.00000000          1
H        10.81057585       7.24709064       3.97821201         0.00000000       0.00000000       0.00000000          1
H        12.47659419       5.20757180       4.91042533         0.00000000       0.00000000       0.00000000          1
H         9.76980613       4.69691771       4.44481901         0.00000000       0.00000000       0.00000000          1
H        10.74626934       4.77709448       7.06099357         0.00000000       0.00000000       0.00000000          1
6
pbc=[F, F, F] list_num_par=6 energy=-1.26974174 iter=20000 frozen=false Lattice="15.00000000 0.00000000 0.00000000 0.00000000 15.00000000 0.00000000 0.00000000 0.00000000 15.00000000" energy_frozen_part=0.00000000 Properties=species:S:1:pos:R:3:velocities:R:3:Z:I:1
H         9.40856249       6.87773981       3.84228148         0.00000000       0.00000000       0.00000000          1
H        11.45440289       7.71279113       5.55153615         0.00000000       0.00000000       0.00000000          1
H        11.98110222       5.82576127       3.56005249         0.00000000       0.00000000       0.00000000          1
H        11.96018964       5.05428370       6.24494877         0.00000000       0.00000000       0.00000000          1
H         9.91435459       4.21923873       4.53569949         0.00000000       0.00000000       0.00000000          1
H         9.38765009       6.10626730       6.52717940         0.00000000       0.00000000       0.00000000          1
6
pbc=[F, F, F] list_num_par=6 energy=-1.26974174 iter=20000 frozen=false Lattice="15.00000000 0.00000000 0.00000000 0.00000000 15.00000000 0.00000000 0.00000000 0.00000000 15.00000000" energy_frozen_part=0.00000000 Properties=species:S:1:pos:R:3:velocities:R:3:Z:I:1
H         9.40844922       6.87770032       3.84252794         0.00000000       0.00000000       0.00000000          1
H        11.45452135       7.71270757       5.55151184         0.00000000       0.00000000       0.00000000          1
H        11.98095548       5.82575308       3.55989016         0.00000000       0.00000000       0.00000000          1
H        11.96042972       5.05418506       6.24475567         0.00000000       0.00000000       0.00000000          1
H         9.91435013       4.21918073       4.53577500         0.00000000       0.00000000       0.00000000          1
H         9.38792405       6.10613130       6.52740479         0.00000000       0.00000000       0.00000000          1
6
pbc=[F, F, F] list_num_par=6 energy=-1.26974174 iter=20000 frozen=false Lattice="15.00000000 0.00000000 0.00000000 0.00000000 15.00000000 0.00000000 0.00000000 0.00000000 15.00000000" energy_frozen_part=0.00000000 Properties=species:S:1:pos:R:3:velocities:R:3:Z:I:1
H         9.08023501       6.81657540       6.12873957         0.00000000       0.00000000       0.00000000          1
H        11.78701930       7.32728483       6.59436421         0.00000000       0.00000000       0.00000000          1
H        10.81056767       7.24708428       3.97818360         0.00000000       0.00000000       0.00000000          1
H        12.47662280       5.20761240       4.91041103         0.00000000       0.00000000       0.00000000          1
H         9.76984201       4.69689832       4.44478861         0.00000000       0.00000000       0.00000000          1
H        10.74629536       4.77709755       7.06096900         0.00000000       0.00000000       0.00000000          1
6
pbc=[F, F, F] list_num_par=6 energy=-1.26974174 iter=20000 frozen=false Lattice="15.00000000 0.00000000 0.00000000 0.00000000 15.00000000 0.00000000 0.00000000 0.00000000 15.00000000" energy_frozen_part=0.00000000 Properties=species:S:1:pos:R:3:velocities:R:3:Z:I:1
H         9.40845321       6.87771216       3.84252636         0.00000000       0.00000000       0.00000000          1
H        11.45452410       7.71270488       5.55151721         0.00000000       0.00000000       0.00000000          1