6
pbc=[F, F, F] list_num_par=6 energy=5.66926423 iter=9 frozen=false Lattice="15.00000000 0.00000000 0.00000000 0.00000000 15.00000000 0.00000000 0.00000000 0.00000000 15.00000000" energy_frozen_part=0.00000000 Properties=species:S:1:pos:R:3:velocities:R:3:Z:I:1
H         4.02656290      14.26019059       8.22045687         0.00000000       0.00000000       0.00000000          1
H         0.57231812       0.52379016      12.21036734         0.00000000       0.00000000       0.00000000          1
H         6.07299752       3.74460272       0.26324501         0.00000000       0.00000000       0.00000000          1
H         9.96156340       9.73068637       2.57206577         0.00000000       0.00000000       0.00000000          1
H         1.78533351       2.00501551      12.63275276         0.00000000       0.00000000       0.00000000          1
H        11.82532296       2.61859986       1.30311302         0.00000000       0.00000000       0.00000000          1
6
pbc=[F, F, F] list_num_par=6 energy=0.68567626 iter=19 frozen=false Lattice="15.00000000 0.00000000 0.00000000 0.00000000 15.00000000 0.00000000 0.00000000 0.00000000 15.00000000" energy_frozen_part=0.00000000 Properties=species:S:1:pos:R:3:velocities:R:3:Z:I:1
H         1.69519613       4.01890375       6.65141643         0.00000000       0.00000000       0.00000000          1
H         0.54834391       0.47163150       2.70030196         0.00000000       0.00000000       0.00000000          1
H        12.40266284       4.70300656      14.55523305         0.00000000       0.00000000       0.00000000          1
H        11.34855945       5.30234317       6.61728258         0.00000000       0.00000000       0.00000000          1
H         5.58083011      10.60232175      10.56865403         0.00000000       0.00000000       0.00000000          1
H        10.11714167       4.27522177       8.18865894         0.00000000       0.00000000       0.00000000          1
6
pbc=[F, F, F] list_num_par=6 energy=0.14811186 iter=29 frozen=false Lattice="15.00000000 0.00000000 0.00000000 0.00000000 15.00000000 0.00000000 0.00000000 0.00000000 15.00000000" energy_frozen_part=0.00000000 Properties=species:S:1:pos:R:3:velocities:R:3:Z:I:1
H         8.27580180       7.23280912      14.03491565         0.00000000       0.00000000       0.00000000          1
H        11.24273565       1.69093993       6.14582202         0.00000000       0.00000000       0.00000000          1
H         4.18982470       3.53803200       4.65574202         0.00000000       0.00000000       0.00000000          1
H         4.99054460       0.55524170       4.05503267         0.00000000       0.00000000       0.00000000          1
H        14.87154194       6.66058717      14.07826290         0.00000000       0.00000000       0.00000000          1
H        12.84296087       3.42927714       6.12582753         0.00000000       0.00000000       0.00000000          1
6
pbc=[F, F, F] list_num_par=6 energy=-0.00349085 iter=39 frozen=false Lattice="15.00000000 0.00000000 0.00000000 0.00000000 15.00000000 0.00000000 0.00000000 0.00000000 15.00000000" energy_frozen_part=0.00000000 Properties=species:S:1:pos:R:3:velocities:R:3:Z:I:1
H         0.20095503       2.24269903       5.92877788         0.00000000       0.00000000       0.00000000          1
H         2.72893477       8.09420649      13.90101254         0.00000000       0.00000000       0.00000000          1
H        11.83503776       1.03271490      12.43642136         0.00000000       0.00000000       0.00000000          1
H         2.25726778      11.23368891       8.82725125         0.00000000       0.00000000       0.00000000          1
H         8.11214627       8.49805015       7.81952586         0.00000000       0.00000000       0.00000000          1
H        13.36415966      10.61754998       0.19452339         0.00000000       0.00000000       0.00000000          1
6
pbc=[F, F, F] list_num_par=6 energy=-0.00732729 iter=49 frozen=false Lattice="15.00000000 0.00000000 0.00000000 0.00000000 15.00000000 0.00000000 0.00000000 0.00000000 15.00000000" energy_frozen_part=0.00000000 Properties=species:S:1:pos:R:3:velocities:R:3:Z:I:1
H         1.74660278       6.11471132       4.61857179         0.00000000       0.00000000       0.00000000          1
H         1.19392837       1.78139222       8.65972841         0.00000000       0.00000000       0.00000000          1
H         4.13406181      13.24604457      14.68578348         0.00000000       0.00000000       0.00000000          1
H         8.82227245      14.18279955       2.29545595         0.00000000       0.00000000       0.00000000          1
H         8.08346527       0.06164991      13.07565504         0.00000000       0.00000000       0.00000000          1
H         3.74832347       9.81659565      10.70674804         0.00000000       0.00000000       0.00000000          1
6
pbc=[F, F, F] list_num_par=6 energy=-0.00970575 iter=59 frozen=false Lattice="15.00000000 0.00000000 0.00000000 0.00000000 15.00000000 0.00000000 0.00000000 0.00000000 15.00000000" energy_frozen_part=0.00000000 Properties=species:S:1:pos:R:3:velocities:R:3:Z:I:1
H         9.59330766      12.49251326      10.49468243         0.00000000       0.00000000       0.00000000          1
H        12.33179362       8.86719591       1.63355910         0.00000000       0.00000000       0.00000000          1
H        13.94506485       2.52167287      13.43894855         0.00000000       0.00000000       0.00000000          1
H        11.34270728       9.20697369       6.55705376         0.00000000       0.00000000       0.00000000          1
H         5.46571780       5.48062406      14.50793153         0.00000000       0.00000000       0.00000000          1
H         0.54071639       7.34726322       0.84128978         0.00000000       0.00000000       0.00000000          1
6
pbc=[F, F, F] list_num_par=6 energy=-0.01307884 iter=69 frozen=false Lattice="15.00000000 0.00000000 0.00000000 0.00000000 15.00000000 0.00000000 0.00000000 0.00000000 15.00000000" energy_frozen_part=0.00000000 Properties=species:S:1:pos:R:3:velocities:R:3:Z:I:1
H         6.84739247       9.17186207       1.17048157         0.00000000       0.00000000       0.00000000          1
H         7.78084054       1.12881733      10.00393026         0.00000000       0.00000000       0.00000000          1
H         1.20730510      13.35686073      12.56855384         0.00000000       0.00000000       0.00000000          1
H        13.56212051       8.03322817       0.70145683         0.00000000       0.00000000       0.00000000          1
H         1.93861608       9.96113350       0.02876557         0.00000000       0.00000000       0.00000000          1
H         3.71314321       4.75791667       0.97535664         0.00000000       0.00000000       0.00000000          1
6
pbc=[F, F, F] list_num_par=6 energy=-0.01628599 iter=79 frozen=false Lattice="15.00000000 0.00000000 0.00000000 0.00000000 15.00000000 0.00000000 0.00000000 0.00000000 15.00000000" energy_frozen_part=0.00000000 Properties=species:S:1:pos:R:3:velocities:R:3:Z:I:1
H         8.38638082      11.61868101       9.55081944         0.00000000       0.00000000       0.00000000          1
H         0.58649599       1.19025979       5.98949504         0.00000000       0.00000000       0.00000000          1
H         0.90252501       9.11679237      12.19317366         0.00000000       0.00000000       0.00000000          1
H         4.50742168      12.42708529       1.95213074         0.00000000       0.00000000       0.00000000          1
H         8.83364594      10.33727702       7.43090613         0.00000000       0.00000000       0.00000000          1
H        14.87793000       0.23803771       6.43781364         0.00000000       0.00000000       0.00000000          1
6
pbc=[F, F, F] list_num_par=6 energy=-0.01787328 iter=89 frozen=false Lattice="15.00000000 0.00000000 0.00000000 0.00000000 15.00000000 0.00000000 0.00000000 0.00000000 15.00000000" energy_frozen_part=0.00000000 Properties=species:S:1:pos:R:3:velocities:R:3:Z:I:1
H        13.69580793      11.52863120      14.51278135         0.00000000       0.00000000       0.00000000          1
H         1.05679991       9.32213726      13.50265286         0.00000000       0.00000000       0.00000000          1
H         0.22606728       8.17304407       2.67170488         0.00000000       0.00000000       0.00000000          1
H         1.79585120      14.69253447       6.16868969         0.00000000       0.00000000       0.00000000          1
H         7.77808258       1.86370161       8.44015476         0.00000000       0.00000000       0.00000000          1
H         2.92667184       9.30241497       9.68283554         0.00000000       0.00000000       0.00000000          1
6
pbc=[F, F, F] list_num_par=6 energy=-0.01992443 iter=99 frozen=false Lattice="15.00000000 0.00000000 0.00000000 0.00000000 15.00000000 0.00000000 0.00000000 0.00000000 15.00000000" energy_frozen_part=0.00000000 Properties=species:S:1:pos:R:3:velocities:R:3:Z:I:1
H         9.40834222       3.01017170       6.17790479         0.00000000       0.00000000       0.00000000          1
H        12.83212115       1.98146313       0.47423099         0.00000000       0.00000000       0.00000000          1
H        13.17351916      13.64535092       0.01320272         0.00000000       0.00000000       0.00000000          1
H        12.34720492       7.22747888       4.67370353         0.00000000       0.00000000       0.00000000          1
H        12.54627415       8.37471354      12.78996504         0.00000000       0.00000000       0.00000000          1
H        11.98497977      12.53596033      11.55747363         0.00000000       0.00000000       0.00000000          1
6
pbc=[F, F, F] list_num_par=6 energy=-0.02263008 iter=109 frozen=false Lattice="15.00000000 0.00000000 0.00000000 0.00000000 15.00000000 0.00000000 0.00000000 0.00000000 15.00000000" energy_frozen_part=0.00000000 Properties=species:S:1:pos:R:3:velocities:R:3:Z:I:1
H        12.64117124      14.94905731       3.86341672         0.00000000       0.00000000       0.00000000          1
H         6.62605904       6.49106357      14.70644653         0.00000000       0.00000000       0.00000000          1
H        11.77828206       0.85620246      12.61939287         0.00000000       0.00000000       0.00000000          1
H         8.36909662      13.54966933       1.45944397         0.00000000       0.00000000       0.00000000          1
H         5.99950939      12.54377586       5.04830283         0.00000000       0.00000000       0.00000000          1
H         1.93283449       3.78267867      14.41899400         0.00000000       0.00000000       0.00000000          1
6
pbc=[F, F, F] list_num_par=6 energy=-0.02493313 iter=119 frozen=false Lattice="15.00000000 0.00000000 0.00000000 0.00000000 15.00000000 0.00000000 0.00000000 0.00000000 15.00000000" energy_frozen_part=0.00000000 Properties=species:S:1:pos:R:3:velocities:R:3:Z:I:1
H         0.04117663       4.07035991      11.71192201         0.00000000       0.00000000       0.00000000          1
H         2.05487368      13.47576386       4.46202732         0.00000000       0.00000000       0.00000000          1
H         2.11376890       3.30538721      12.85072888         0.00000000       0.00000000       0.00000000          1
H         0.01614482       3.76792110       2.35616767         0.00000000       0.00000000       0.00000000          1
H        14.42596101       4.47624813      14.96396396         0.00000000       0.00000000       0.00000000          1
H        12.29646819       7.32295983      14.39292795         0.00000000       0.00000000       0.00000000          1
6
pbc=[F, F, F] list_num_par=6 energy=-0.02989284 iter=129 frozen=false Lattice="15.00000000 0.00000000 0.00000000 0.00000000 15.00000000 0.00000000 0.00000000 0.00000000 15.00000000" energy_frozen_part=0.00000000 Properties=species:S:1:pos:R:3:velocities:R:3:Z:I:1
H        13.63493511       3.36312893       5.28676243         0.00000000       0.00000000       0.00000000          1
H         4.75478522       9.89476942      14.21527948         0.00000000       0.00000000       0.00000000          1
H        10.82472059      12.29796530       9.67756272         0.00000000       0.00000000       0.00000000          1
H        12.93771200       9.90682854      12.09792146         0.00000000       0.00000000       0.00000000          1
H         9.49994305      10.17196058       5.39282718         0.00000000       0.00000000       0.00000000          1
H         1.99911915      13.91346237       5.35325263         0.00000000       0.00000000       0.00000000          1
6
pbc=[F, F, F] list_num_par=6 energy=-0.03564466 iter=139 frozen=false Lattice="15.00000000 0.00000000 0.00000000 0.00000000 15.00000000 0.00000000 0.00000000 0.00000000 15.00000000" energy_frozen_part=0.00000000 Properties=species:S:1:pos:R:3:velocities:R:3:Z:I:1
H         7.54222291       0.31167157      10.22799226         0.00000000       0.00000000       0.00000000          1
H         3.38638855       8.54844202       5.11958347         0.00000000       0.00000000       0.00000000          1
H         5.53951241       5.04281498       6.68566715         0.00000000       0.00000000       0.00000000          1
H        11.13355615       2.30915488       9.34457641         0.00000000       0.00000000       0.00000000          1
H         6.37763522      10.89401111       0.36506363         0.00000000       0.00000000       0.00000000          1
H         0.36481625       2.64827430      10.30336946         0.00000000       0.00000000       0.00000000          1
6
pbc=[F, F, F] list_num_par=6 energy=-0.04121789 iter=149 frozen=false Lattice="15.00000000 0.00000000 0.00000000 0.00000000 15.00000000 0.00000000 0.00000000 0.00000000 15.00000000" energy_frozen_part=0.00000000 Properties=species:S:1:pos:R:3:velocities:R:3:Z:I:1
H         4.37679344       5.33830452      10.78077442         0.00000000       0.00000000       0.00000000          1
H         1.96031490       5.02107422       2.57767283         0.00000000       0.00000000       0.00000000          1
H         9.83250407      11.01433470       8.23384436         0.00000000       0.00000000       0.00000000          1
H         1.24556295       0.32133861       7.07560895         0.00000000       0.00000000       0.00000000          1
H         5.79557090       1.99965453       9.36294027         0.00000000       0.00000000       0.00000000          1
H         3.26690522       9.12967695       0.73688479         0.00000000       0.00000000       0.00000000          1
6
pbc=[F, F, F] list_num_par=6 energy=-0.04606882 iter=159 frozen=false Lattice="15.00000000 0.00000000 0.00000000 0.00000000 15.00000000 0.00000000 0.00000000 0.00000000 15.00000000" energy_frozen_part=0.00000000 Properties=species:S:1:pos:R:3:velocities:R:3:Z:I:1
H        13.40593183       1.65412983       7.36837482         0.00000000       0.00000000       0.00000000          1
H         7.41052864       5.40610591       3.15597274         0.00000000       0.00000000       0.00000000          1
H         9.81370328       4.64179386      14.19527490         0.00000000       0.00000000       0.00000000          1
H        10.66590948       5.56081223       0.72397819         0.00000000       0.00000000       0.00000000          1
H         4.75493074       7.11337693      11.22019414         0.00000000       0.00000000       0.00000000          1
H         5.10406721       8.42558634       7.40093616         0.00000000       0.00000000       0.00000000          1
6
pbc=[F, F, F] list_num_par=6 energy=-0.05420187 iter=169 frozen=false Lattice="15.00000000 0.00000000 0.00000000 0.00000000 15.00000000 0.00000000 0.00000000 0.00000000 15.00000000" energy_frozen_part=0.00000000 Properties=species:S:1:pos:R:3:velocities:R:3:Z:I:1
H         5.56320715       0.35944353      10.23551995         0.00000000       0.00000000       0.00000000          1
H         0.95862206       9.84334539      10.70002509         0.00000000       0.00000000       0.00000000          1
H        10.04449542       3.87885216       6.46023729         0.00000000       0.00000000       0.00000000          1
H        10.96226223       7.07652796       0.07087392         0.00000000       0.00000000       0.00000000          1
H        14.04471832       0.77625867       6.48115750         0.00000000       0.00000000       0.00000000          1
H        13.46826999       3.63360929       3.99095720         0.00000000       0.00000000       0.00000000          1
6
pbc=[F, F, F] list_num_par=6 energy=-0.05909945 iter=179 frozen=false Lattice="15.00000000 0.00000000 0.00000000 0.00000000 15.00000000 0.00000000 0.00000000 0.00000000 15.00000000" energy_frozen_part=0.00000000 Properties=species:S:1:pos:R:3:velocities:R:3:Z:I:1
H         3.99495054      11.62440785       2.34132499         0.00000000       0.00000000       0.00000000          1
H        14.79215184      14.79800799       4.33144646         0.00000000       0.00000000       0.00000000          1
H         5.04477444       8.46753230       4.34627845         0.00000000       0.00000000       0.00000000          1
H         8.06923444      14.79952161      11.29090384         0.00000000       0.00000000       0.00000000          1
H         6.23743857       6.08757984       0.86931365         0.00000000       0.00000000       0.00000000          1
H         7.93899765       2.36456923       0.05292824         0.00000000       0.00000000       0.00000000          1
6
pbc=[F, F, F] list_num_par=6 energy=-0.06526791 iter=189 frozen=false Lattice="15.00000000 0.00000000 0.00000000 0.00000000 15.00000000 0.00000000 0.00000000 0.00000000 15.00000000" energy_frozen_part=0.00000000 Properties=species:S:1:pos:R:3:velocities:R:3:Z:I:1
H         1.62996557       0.04484139      11.21930458         0.00000000       0.00000000       0.00000000          1
H        14.10589122       9.88257104       6.44850413         0.00000000       0.00000000       0.00000000          1
H        10.72147206       0.45991613       7.61538367         0.00000000       0.00000000       0.00000000          1
H        13.81351411       1.10031901       8.90612429         0.00000000       0.00000000       0.00000000          1
H         5.67779982       9.02503951       2.95690416         0.00000000       0.00000000       0.00000000          1
H        10.94625341       6.49235490       7.09286374         0.00000000       0.00000000       0.00000000          1
6
pbc=[F, F, F] list_num_par=6 energy=-0.06999139 iter=199 frozen=false Lattice="15.00000000 0.00000000 0.00000000 0.00000000 15.00000000 0.00000000 0.00000000 0.00000000 15.00000000" energy_frozen_part=0.00000000 Properties=species:S:1:pos:R:3:velocities:R:3:Z:I:1
H         8.52307820       5.05156391      13.26840023         0.00000000       0.00000000       0.00000000          1
H         6.51120072      13.74272686       5.63243641         0.00000000       0.00000000       0.00000000          1
H         2.73688045      14.56452804       6.00492613         0.00000000       0.00000000       0.00000000          1
H         9.30259950       6.50511831       9.00297778         0.00000000       0.00000000       0.00000000          1
H         9.06308627      11.97911149      13.29168896         0.00000000       0.00000000       0.00000000          1
H         5.46739843       6.77320538      14.75263473         0.00000000       0.00000000       0.00000000          1
6
pbc=[F, F, F] list_num_par=6 energy=-0.07375947 iter=209 frozen=false Lattice="15.00000000 0.00000000 0.00000000 0.00000000 15.00000000 0.00000000 0.00000000 0.00000000 15.00000000" energy_frozen_part=0.00000000 Properties=species:S:1:pos:R:3:velocities:R:3:Z:I:1
H         9.23779828       6.45628497      14.82031208         0.00000000       0.00000000       0.00000000          1
H         4.66408052      12.01080644       2.29809335         0.00000000       0.00000000       0.00000000          1
H         7.78372420       8.68323767      12.73665427         0.00000000       0.00000000       0.00000000          1
H         3.76170429       4.09796082       9.65841448         0.00000000       0.00000000       0.00000000          1
H         3.50260760       8.94718614      13.15427930         0.00000000       0.00000000       0.00000000          1
H        13.12746560       1.98348826       2.86147333         0.00000000       0.00000000       0.00000000          1
6
pbc=[F, F, F] list_num_par=6 energy=-0.07766054 iter=219 frozen=false Lattice="15.00000000 0.00000000 0.00000000 0.00000000 15.00000000 0.00000000 0.00000000 0.00000000 15.00000000" energy_frozen_part=0.00000000 Properties=species:S:1:pos:R:3:velocities:R:3:Z:I:1
H        14.52820083      11.78384280       6.37432089         0.00000000       0.00000000       0.00000000          1
H         4.37111874       8.49095105       7.88446686         0.00000000       0.00000000       0.00000000          1
H        13.46625085       3.57632793      14.75545423         0.00000000       0.00000000       0.00000000          1
H        10.67798664      14.14482821       0.32332422         0.00000000       0.00000000       0.00000000          1
H         6.92259340      14.66256372       9.34747324         0.00000000       0.00000000       0.00000000          1
H         4.59413398       5.42810134       8.52097676         0.00000000       0.00000000       0.00000000          1
6
pbc=[F, F, F] list_num_par=6 energy=-0.08469468 iter=229 frozen=false Lattice="15.00000000 0.00000000 0.00000000 0.00000000 15.00000000 0.00000000 0.00000000 0.00000000 15.00000000" energy_frozen_part=0.00000000 Properties=species:S:1:pos:R:3:velocities:R:3:Z:I:1
H        10.35518602       2.00869827       4.56499503         0.00000000       0.00000000       0.00000000          1
H        13.69601462       0.51087703       0.20457814         0.00000000       0.00000000       0.00000000          1
H        13.25559003      10.89488876       5.53511628         0.00000000       0.00000000       0.00000000          1
H        13.16835575      11.97121879       8.43665001         0.00000000       0.00000000       0.00000000          1
H         0.95004473       7.48497056       8.29161558         0.00000000       0.00000000       0.00000000          1
H        11.89926904       2.07818855      10.43354123         0.00000000       0.00000000       0.00000000          1
6
pbc=[F, F, F] list_num_par=6 energy=-0.08947701 iter=239 frozen=false Lattice="15.00000000 0.00000000 0.00000000 0.00000000 15.00000000 0.00000000 0.00000000 0.00000000 15.00000000" energy_frozen_part=0.00000000 Properties=species:S:1:pos:R:3:velocities:R:3:Z:I:1
H         5.24830352       6.56137726       2.53976285         0.00000000       0.00000000       0.00000000          1
H         8.77333857       7.44807364       4.79872495         0.00000000       0.00000000       0.00000000          1
H        11.00414724      13.31640384      10.79276505         0.00000000       0.00000000       0.00000000          1
H         3.86762701      10.66382266      13.09468705         0.00000000       0.00000000       0.00000000          1
H        13.79303295       6.95249848       0.97630099         0.00000000       0.00000000       0.00000000          1
H         5.92891603      12.46192678      14.73541000         0.00000000       0.00000000       0.00000000          1
6
pbc=[F, F, F] list_num_par=6 energy=-0.09168780 iter=249 frozen=false Lattice="15.00000000 0.00000000 0.00000000 0.00000000 15.00000000 0.00000000 0.00000000 0.00000000 15.00000000" energy_frozen_part=0.00000000 Properties=species:S:1:pos:R:3:velocities:R:3:Z:I:1
H         5.50404461       6.55139827       0.53905812         0.00000000       0.00000000       0.00000000          1
H         7.79836728      10.39007954       2.98098052         0.00000000       0.00000000       0.00000000          1
H        10.50124505       9.59059882       9.75761683         0.00000000       0.00000000       0.00000000          1
H         9.53954010      11.58156747      11.18192371         0.00000000       0.00000000       0.00000000          1
H         4.78388549       9.01940189       8.88990163         0.00000000       0.00000000       0.00000000          1
H         6.13274133       0.81830435       0.30846668         0.00000000       0.00000000       0.00000000          1
6
pbc=[F, F, F] list_num_par=6 energy=-0.09481087 iter=259 frozen=false Lattice="15.00000000 0.00000000 0.00000000 0.00000000 15.00000000 0.00000000 0.00000000 0.00000000 15.00000000" energy_frozen_part=0.00000000 Properties=species:S:1:pos:R:3:velocities:R:3:Z:I:1
H         0.47577347       4.19045705      11.68334977         0.00000000       0.00000000       0.00000000          1
H         2.08022663      12.10949567       0.45602862         0.00000000       0.00000000       0.00000000          1
H         7.84542272       5.56227206      12.16114143         0.00000000       0.00000000       0.00000000          1
H         2.73264841      13.12390508       8.96945561         0.00000000       0.00000000       0.00000000          1
H        10.60505346       9.42079141      12.04200387         0.00000000       0.00000000       0.00000000          1
H        10.87512944       4.81400611      11.84326304         0.00000000       0.00000000       0.00000000          1
6
pbc=[F, F, F] list_num_par=6 energy=-0.09776988 iter=269 frozen=false Lattice="15.00000000 0.00000000 0.00000000 0.00000000 15.00000000 0.00000000 0.00000000 0.00000000 15.00000000" energy_frozen_part=0.00000000 Properties=species:S:1:pos:R:3:velocities:R:3:Z:I:1
H         9.25030973       4.11464738      13.02422264         0.00000000       0.00000000       0.00000000          1
H        13.78678360       0.58166131       1.59697407         0.00000000       0.00000000       0.00000000          1
H         3.20637584       2.54160892       8.57745678         0.00000000       0.00000000       0.00000000          1
H        14.73670186       2.63780021      10.98264690         0.00000000       0.00000000       0.00000000          1
H         4.56980000       0.09882136       9.44286372         0.00000000       0.00000000       0.00000000          1
H         6.18427383      10.02724059       2.08940941         0.00000000       0.00000000       0.00000000          1
6
pbc=[F, F, F] list_num_par=6 energy=-0.10053138 iter=279 frozen=false Lattice="15.00000000 0.00000000 0.00000000 0.00000000 15.00000000 0.00000000 0.00000000 0.00000000 15.00000000" energy_frozen_part=0.00000000 Properties=species:S:1:pos:R:3:velocities:R:3:Z:I:1
H        13.79925118      12.08641916       0.42409425         0.00000000       0.00000000       0.00000000          1
H         9.98696970      12.60486899       0.35849735         0.00000000       0.00000000       0.00000000          1
H         8.41485034       0.76505786      12.07167772         0.00000000       0.00000000       0.00000000          1
H         7.40767286      13.63236351       2.19661935         0.00000000       0.00000000       0.00000000          1
H        12.09058765       7.42404699      14.74517669         0.00000000       0.00000000       0.00000000          1
H        13.42676077       6.47762223      10.64112069         0.00000000       0.00000000       0.00000000          1
6
pbc=[F, F, F] list_num_par=6 energy=-0.10161716 iter=289 frozen=false Lattice="15.00000000 0.00000000 0.00000000 0.00000000 15.00000000 0.00000000 0.00000000 0.00000000 15.00000000" energy_frozen_part=0.00000000 Properties=species:S:1:pos:R:3:velocities:R:3:Z:I:1
H         7.94406272       5.67844529       2.87309829         0.00000000       0.00000000       0.00000000          1
H         2.11394089      14.56713000      12.49117003         0.00000000       0.00000000       0.00000000          1
H        11.12620650       4.81306556      13.11604396         0.00000000       0.00000000       0.00000000          1
H         4.11943729       7.80492171       7.02564303         0.00000000       0.00000000       0.00000000          1
H         6.20440501       3.71646351      13.54273660         0.00000000       0.00000000       0.00000000          1
H        11.63569635       2.21280456      14.47339711         0.00000000       0.00000000       0.00000000          1
6
pbc=[F, F, F] list_num_par=6 energy=-0.10368222 iter=299 frozen=false Lattice="15.00000000 0.00000000 0.00000000 0.00000000 15.00000000 0.00000000 0.00000000 0.00000000 15.00000000" energy_frozen_part=0.00000000 Properties=species:S:1:pos:R:3:velocities:R:3:Z:I:1
H         0.90673934       8.29772852      13.82061179         0.00000000       0.00000000       0.00000000          1
H         1.71803162      10.75039714       1.50736873         0.00000000       0.00000000       0.00000000          1
H        12.74430283       2.24643995      11.60182648         0.00000000       0.00000000       0.00000000          1
H         8.56024466       6.11483406      13.29770808         0.00000000       0.00000000       0.00000000          1
H         8.41551646       3.56264716       6.43201990         0.00000000       0.00000000       0.00000000          1
H         2.99766539       9.44319137       3.61349845         0.00000000       0.00000000       0.00000000          1
6
pbc=[F, F, F] list_num_par=6 energy=-0.10743131 iter=309 frozen=false Lattice="15.00000000 0.00000000 0.00000000 0.00000000 15.00000000 0.00000000 0.00000000 0.00000000 15.00000000" energy_frozen_part=0.00000000 Properties=species:S:1:pos:R:3:velocities:R:3:Z:I:1
H        10.61097231      11.36025592       0.16007001         0.00000000       0.00000000       0.00000000          1
H        10.27968018      10.92703209       4.07962520         0.00000000       0.00000000       0.00000000          1