6
pbc=[F, F, F] list_num_par=6 frozen=false iter=20000 energy=-1.26974174 Lattice="15.00000000 0.00000000 0.00000000 0.00000000 15.00000000 0.00000000 0.00000000 0.00000000 15.00000000" energy_frozen_part=0.00000000 Properties=species:S:1:pos:R:3:velocities:R:3:Z:I:1
H         6.92125898      10.52687482      14.36859514         0.00000000       0.00000000       0.00000000          1
H         8.88931493       8.87556848      13.27122772         0.00000000       0.00000000       0.00000000          1
H         5.52215814      10.46575512      11.95134955         0.00000000       0.00000000       0.00000000          1
H         6.21237195       8.07790808      13.22652721         0.00000000       0.00000000       0.00000000          1
H         7.49021223       8.81445405      10.85399017         0.00000000       0.00000000       0.00000000          1
H         8.19909515      11.26342428      11.99606342         0.00000000       0.00000000       0.00000000          1
6
pbc=[F, F, F] list_num_par=6 frozen=false iter=20000 energy=-1.26974174 Lattice="15.00000000 0.00000000 0.00000000 0.00000000 15.00000000 0.00000000 0.00000000 0.00000000 15.00000000" energy_frozen_part=0.00000000 Properties=species:S:1:pos:R:3:velocities:R:3:Z:I:1
H         6.91748067      10.52494546      14.37168411         0.00000000       0.00000000       0.00000000          1
H         8.88755846       8.87830178      13.27092941         0.00000000       0.00000000       0.00000000          1
H         5.51597942      10.46311879      11.95584800         0.00000000       0.00000000       0.00000000          1
H         6.21210085       8.07555826      13.22834305         0.00000000       0.00000000       0.00000000          1
H         7.48605615       8.81648064      10.85508854         0.00000000       0.00000000       0.00000000          1
H         8.19143999      11.26586236      11.99843686         0.00000000       0.00000000       0.00000000          1
6
pbc=[F, F, F] list_num_par=6 frozen=false iter=20000 energy=-1.26974174 Lattice="15.00000000 0.00000000 0.00000000 0.00000000 15.00000000 0.00000000 0.00000000 0.00000000 15.00000000" energy_frozen_part=0.00000000 Properties=species:S:1:pos:R:3:velocities:R:3:Z:I:1
H         6.92126351      10.52687241      14.36858842         0.00000000       0.00000000       0.00000000          1
H         8.88932857       8.87557191      13.27121838         0.00000000       0.00000000       0.00000000          1
H         5.52215720      10.46574893      11.95135122         0.00000000       0.00000000       0.00000000          1
H         6.21238668       8.07790132      13.22652682         0.00000000       0.00000000       0.00000000          1
H         7.49021879       8.81445214      10.85398985         0.00000000       0.00000000       0.00000000          1
H         8.19909983      11.26342391      11.99605929         0.00000000       0.00000000       0.00000000          1
6
pbc=[F, F, F] list_num_par=6 frozen=false iter=20000 energy=-1.26974174 Lattice="15.00000000 0.00000000 0.00000000 0.00000000 15.00000000 0.00000000 0.00000000 0.00000000 15.00000000" energy_frozen_part=0.00000000 Properties=species:S:1:pos:R:3:velocities:R:3:Z:I:1
H         6.92126820      10.52685813      14.36859397         0.00000000       0.00000000       0.00000000          1
H         8.88928794       8.87553923      13.27116728         0.00000000       0.00000000       0.00000000          1
H         5.52215528      10.46584802      11.95135069         0.00000000       0.00000000       0.00000000          1
H         6.21232453       8.07794801      13.22643880         0.00000000       0.00000000       0.00000000          1
H         7.49017193       8.81453938      10.85392371         0.00000000       0.00000000       0.00000000          1
H         8.19911558      11.26344739      11.99608733         0.00000000       0.00000000       0.00000000          1
6
pbc=[F, F, F] list_num_par=6 frozen=false iter=20000 energy=-1.26974174 Lattice="15.00000000 0.00000000 0.00000000 0.00000000 15.00000000 0.00000000 0.00000000 0.00000000 15.00000000" energy_frozen_part=0.00000000 Properties=species:S:1:pos:R:3:velocities:R:3:Z:I:1
H         6.91749217      10.52482308      14.37165119         0.00000000       0.00000000       0.00000000          1
H         8.88757086       8.87822722      13.27084149         0.00000000       0.00000000       0.00000000          1
H         5.51603846      10.46311427      11.95578534         0.00000000       0.00000000       0.00000000          1
H         6.21212024       8.07548945      13.22818160         0.00000000       0.00000000       0.00000000          1
H         7.48612007       8.81651787      10.85497905         0.00000000       0.00000000       0.00000000          1
H         8.19148820      11.26585313      11.99844465         0.00000000       0.00000000       0.00000000          1
6
pbc=[F, F, F] list_num_par=6 frozen=false iter=20000 energy=-1.26974174 Lattice="15.00000000 0.00000000 0.00000000 0.00000000 15.00000000 0.00000000 0.00000000 0.00000000 15.00000000" energy_frozen_part=0.00000000 Properties=species:S:1:pos:R:3:velocities:R:3:Z:I:1
H         6.92126753      10.52686031      14.36859011         0.00000000       0.00000000       0.00000000          1
H         8.88928127       8.87554184      13.27116566         0.00000000       0.00000000       0.00000000          1
H         5.52214526      10.46585064      11.95136102         0.00000000       0.00000000       0.00000000          1
H         6.21231926       8.07794390      13.22643851         0.00000000       0.00000000       0.00000000          1
H         7.49016752       8.81453537      10.85392932         0.00000000       0.00000000       0.00000000          1
H         8.19911265      11.26344619      11.99607877         0.00000000       0.00000000       0.00000000          1
6
pbc=[F, F, F] list_num_par=6 frozen=false iter=20000 energy=-1.26974174 Lattice="15.00000000 0.00000000 0.00000000 0.00000000 15.00000000 0.00000000 0.00000000 0.00000000 15.00000000" energy_frozen_part=0.00000000 Properties=species:S:1:pos:R:3:velocities:R:3:Z:I:1
H         6.91751987      10.52503623      14.37135859         0.00000000       0.00000000       0.00000000          1
H         8.88763893       8.87834914      13.27074968         0.00000000       0.00000000       0.00000000          1
H         5.51601452      10.46294965      11.95553264         0.00000000       0.00000000       0.00000000          1
H         6.21220137       8.07552286      13.22825493         0.00000000       0.00000000       0.00000000          1
H         7.48613708       8.81626067      10.85492193         0.00000000       0.00000000       0.00000000          1
H         8.19144317      11.26577918      11.99802992         0.00000000       0.00000000       0.00000000          1
6
pbc=[F, F, F] list_num_par=6 frozen=false iter=20000 energy=-1.26974174 Lattice="15.00000000 0.00000000 0.00000000 0.00000000 15.00000000 0.00000000 0.00000000 0.00000000 15.00000000" energy_frozen_part=0.00000000 Properties=species:S:1:pos:R:3:velocities:R:3:Z:I:1
H         6.91748663      10.52488250      14.37167022         0.00000000       0.00000000       0.00000000          1
H         8.88763535       8.87831148      13.27093410         0.00000000       0.00000000       0.00000000          1
H         5.51607352      10.46308946      11.95578261         0.00000000       0.00000000       0.00000000          1
H         6.21219192       8.07551193      13.22824240         0.00000000       0.00000000       0.00000000          1
H         7.48622006       8.81651858      10.85504269         0.00000000       0.00000000       0.00000000          1
H         8.19151554      11.26589269      11.99847543         0.00000000       0.00000000       0.00000000          1
6
pbc=[F, F, F] list_num_par=6 frozen=false iter=20000 energy=-1.26974174 Lattice="15.00000000 0.00000000 0.00000000 0.00000000 15.00000000 0.00000000 0.00000000 0.00000000 15.00000000" energy_frozen_part=0.00000000 Properties=species:S:1:pos:R:3:velocities:R:3:Z:I:1
H         6.91610993      10.52556675      14.37064253         0.00000000       0.00000000       0.00000000          1
H         8.88639840       8.87903556      13.27012272         0.00000000       0.00000000       0.00000000          1
H         5.51457022      10.46313793      11.95484480         0.00000000       0.00000000       0.00000000          1
H         6.21105787       8.07588522      13.22771352         0.00000000       0.00000000       0.00000000          1
H         7.48487011       8.81661441      10.85431914         0.00000000       0.00000000       0.00000000          1
H         8.18991338      11.26629070      11.99724125         0.00000000       0.00000000       0.00000000          1
6
pbc=[F, F, F] list_num_par=6 frozen=false iter=20000 energy=-1.26974174 Lattice="15.00000000 0.00000000 0.00000000 0.00000000 15.00000000 0.00000000 0.00000000 0.00000000 15.00000000" energy_frozen_part=0.00000000 Properties=species:S:1:pos:R:3:velocities:R:3:Z:I:1
H         6.91747627      10.52495467      14.37165368         0.00000000       0.00000000       0.00000000          1
H         8.88755312       8.87831740      13.27089238         0.00000000       0.00000000       0.00000000          1
H         5.51597877      10.46312955      11.95581854         0.00000000       0.00000000       0.00000000          1
H         6.21210369       8.07557050      13.22831953         0.00000000       0.00000000       0.00000000          1
H         7.48605540       8.81649857      10.85505763         0.00000000       0.00000000       0.00000000          1
H         8.19144000      11.26588213      11.99839811         0.00000000       0.00000000       0.00000000          1
6
pbc=[F, F, F] list_num_par=6 frozen=false iter=20000 energy=-1.26974174 Lattice="15.00000000 0.00000000 0.00000000 0.00000000 15.00000000 0.00000000 0.00000000 0.00000000 15.00000000" energy_frozen_part=0.00000000 Properties=species:S:1:pos:R:3:velocities:R:3:Z:I:1
H         6.91760940      10.52504701      14.37135923         0.00000000       0.00000000       0.00000000          1
H         8.88766843       8.87834972      13.27065690         0.00000000       0.00000000       0.00000000          1
H         5.51599164      10.46296324      11.95560031         0.00000000       0.00000000       0.00000000          1
H         6.21222589       8.07553270      13.22829245         0.00000000       0.00000000       0.00000000          1
H         7.48603940       8.81625923      10.85490369         0.00000000       0.00000000       0.00000000          1
H         8.19142828      11.26577493      11.99796017         0.00000000       0.00000000       0.00000000          1
6
pbc=[F, F, F] list_num_par=6 frozen=false iter=20000 energy=-1.26974174 Lattice="15.00000000 0.00000000 0.00000000 0.00000000 15.00000000 0.00000000 0.00000000 0.00000000 15.00000000" energy_frozen_part=0.00000000 Properties=species:S:1:pos:R:3:velocities:R:3:Z:I:1
H         6.91748665      10.52484995      14.37164005         0.00000000       0.00000000       0.00000000          1
H         8.88756836       8.87825490      13.27084427         0.00000000       0.00000000       0.00000000          1
H         5.51599515      10.46307091      11.95579431         0.00000000       0.00000000       0.00000000          1
H         6.21212054       8.07548738      13.22824482         0.00000000       0.00000000       0.00000000          1
H         7.48608030       8.81647011      10.85500622         0.00000000       0.00000000       0.00000000          1
H         8.19143954      11.26583813      11.99840308         0.00000000       0.00000000       0.00000000          1
6
pbc=[F, F, F] list_num_par=6 frozen=false iter=20000 energy=-1.26974174 Lattice="15.00000000 0.00000000 0.00000000 0.00000000 15.00000000 0.00000000 0.00000000 0.00000000 15.00000000" energy_frozen_part=0.00000000 Properties=species:S:1:pos:R:3:velocities:R:3:Z:I:1
H         6.92125581      10.52690542      14.36856794         0.00000000       0.00000000       0.00000000          1
H         8.88928868       8.87555710      13.27121850         0.00000000       0.00000000       0.00000000          1
H         5.52214883      10.46579052      11.95132807         0.00000000       0.00000000       0.00000000          1
H         6.21234026       8.07793520      13.22651285         0.00000000       0.00000000       0.00000000          1
H         7.49018559       8.81444946      10.85397515         0.00000000       0.00000000       0.00000000          1
H         8.19910301      11.26341010      11.99603731         0.00000000       0.00000000       0.00000000          1
6
pbc=[F, F, F] list_num_par=6 frozen=false iter=20000 energy=-1.26974174 Lattice="15.00000000 0.00000000 0.00000000 0.00000000 15.00000000 0.00000000 0.00000000 0.00000000 15.00000000" energy_frozen_part=0.00000000 Properties=species:S:1:pos:R:3:velocities:R:3:Z:I:1
H         6.91612015      10.52555421      14.37064322         0.00000000       0.00000000       0.00000000          1
H         8.88640545       8.87902619      13.27010748         0.00000000       0.00000000       0.00000000          1
H         5.51457685      10.46314536      11.95485132         0.00000000       0.00000000       0.00000000          1
H         6.21106158       8.07588754      13.22772358         0.00000000       0.00000000       0.00000000          1
H         7.48485483       8.81660124      10.85431259         0.00000000       0.00000000       0.00000000          1
H         8.18991813      11.26627839      11.99723139         0.00000000       0.00000000       0.00000000          1
6
pbc=[F, F, F] list_num_par=6 frozen=false iter=20000 energy=-1.26974174 Lattice="15.00000000 0.00000000 0.00000000 0.00000000 15.00000000 0.00000000 0.00000000 0.00000000 15.00000000" energy_frozen_part=0.00000000 Properties=species:S:1:pos:R:3:velocities:R:3:Z:I:1
H         6.92127353      10.52685184      14.36858096         0.00000000       0.00000000       0.00000000          1
H         8.88928818       8.87553077      13.27114704         0.00000000       0.00000000       0.00000000          1
H         5.52214711      10.46584810      11.95134873         0.00000000       0.00000000       0.00000000          1
H         6.21232659       8.07793878      13.22643709         0.00000000       0.00000000       0.00000000          1
H         7.49015674       8.81453054      10.85391588         0.00000000       0.00000000       0.00000000          1
H         8.19910445      11.26343939      11.99606675         0.00000000       0.00000000       0.00000000          1
6
pbc=[F, F, F] list_num_par=6 frozen=false iter=20000 energy=-1.26974174 Lattice="15.00000000 0.00000000 0.00000000 0.00000000 15.00000000 0.00000000 0.00000000 0.00000000 15.00000000" energy_frozen_part=0.00000000 Properties=species:S:1:pos:R:3:velocities:R:3:Z:I:1
H         6.91753701      10.52497236      14.37160184         0.00000000       0.00000000       0.00000000          1
H         8.88761375       8.87828190      13.27092090         0.00000000       0.00000000       0.00000000          1
H         5.51605555      10.46305052      11.95575699         0.00000000       0.00000000       0.00000000          1
H         6.21214985       8.07553742      13.22836589         0.00000000       0.00000000       0.00000000          1
H         7.48612097       8.81635636      10.85508676         0.00000000       0.00000000       0.00000000          1
H         8.19151257      11.26578903      11.99831928         0.00000000       0.00000000       0.00000000          1
6
pbc=[F, F, F] list_num_par=6 frozen=false iter=20000 energy=-1.26974174 Lattice="15.00000000 0.00000000 0.00000000 0.00000000 15.00000000 0.00000000 0.00000000 0.00000000 15.00000000" energy_frozen_part=0.00000000 Properties=species:S:1:pos:R:3:velocities:R:3:Z:I:1
H         6.91755729      10.52507586      14.37137294         0.00000000       0.00000000       0.00000000          1
H         8.88762880       8.87838122      13.27069409         0.00000000       0.00000000       0.00000000          1
H         5.51597601      10.46300168      11.95559026         0.00000000       0.00000000       0.00000000          1
H         6.21219332       8.07557098      13.22828862         0.00000000       0.00000000       0.00000000          1
H         7.48604686       8.81629616      10.85491571         0.00000000       0.00000000       0.00000000          1
H         8.19141782      11.26580569      11.99800615         0.00000000       0.00000000       0.00000000          1
6
pbc=[F, F, F] list_num_par=6 frozen=false iter=20000 energy=-1.26974174 Lattice="15.00000000 0.00000000 0.00000000 0.00000000 15.00000000 0.00000000 0.00000000 0.00000000 15.00000000" energy_frozen_part=0.00000000 Properties=species:S:1:pos:R:3:velocities:R:3:Z:I:1
H         6.92127218      10.52684769      14.36858936         0.00000000       0.00000000       0.00000000          1
H         8.88928629       8.87551860      13.27116115         0.00000000       0.00000000       0.00000000          1
H         5.52214640      10.46583884      11.95135227         0.00000000       0.00000000       0.00000000          1
H         6.21231484       8.07793821      13.22644427         0.00000000       0.00000000       0.00000000          1
H         7.49016381       8.81451851      10.85392814         0.00000000       0.00000000       0.00000000          1
H         8.19911333      11.26343010      11.99606880         0.00000000       0.00000000       0.00000000          1
6
pbc=[F, F, F] list_num_par=6 frozen=false iter=20000 energy=-1.26974174 Lattice="15.00000000 0.00000000 0.00000000 0.00000000 15.00000000 0.00000000 0.00000000 0.00000000 15.00000000" energy_frozen_part=0.00000000 Properties=species:S:1:pos:R:3:velocities:R:3:Z:I:1
H         6.91749477      10.52485232      14.37167965         0.00000000       0.00000000       0.00000000          1
H         8.88763369       8.87829261      13.27092492         0.00000000       0.00000000       0.00000000          1
H         5.51607777      10.46308031      11.95579034         0.00000000       0.00000000       0.00000000          1
H         6.21219487       8.07549422      13.22823409         0.00000000       0.00000000       0.00000000          1
H         7.48622318       8.81651915      10.85504220         0.00000000       0.00000000       0.00000000          1
H         8.19151254      11.26587969      11.99849054         0.00000000       0.00000000       0.00000000          1
6
pbc=[F, F, F] list_num_par=6 frozen=false iter=20000 energy=-1.26974174 Lattice="15.00000000 0.00000000 0.00000000 0.00000000 15.00000000 0.00000000 0.00000000 0.00000000 15.00000000" energy_frozen_part=0.00000000 Properties=species:S:1:pos:R:3:velocities:R:3:Z:I:1
H         6.91614058      10.52555894      14.37064490         0.00000000       0.00000000       0.00000000          1
H         8.88641458       8.87901046      13.27010735         0.00000000       0.00000000       0.00000000          1
H         5.51458951      10.46315308      11.95485219         0.00000000       0.00000000       0.00000000          1
H         6.21105708       8.07588848      13.22771955         0.00000000       0.00000000       0.00000000          1
H         7.48485919       8.81659885      10.85431664         0.00000000       0.00000000       0.00000000          1
H         8.18993696      11.26626999      11.99723088         0.00000000       0.00000000       0.00000000          1
6
pbc=[F, F, F] list_num_par=6 frozen=false iter=20000 energy=-1.26974174 Lattice="15.00000000 0.00000000 0.00000000 0.00000000 15.00000000 0.00000000 0.00000000 0.00000000 15.00000000" energy_frozen_part=0.00000000 Properties=species:S:1:pos:R:3:velocities:R:3:Z:I:1
H         6.91751699      10.52499006      14.37160210         0.00000000       0.00000000       0.00000000          1
H         8.88763358       8.87832841      13.27093608         0.00000000       0.00000000       0.00000000          1
H         5.51604847      10.46302814      11.95575055         0.00000000       0.00000000       0.00000000          1
H         6.21218692       8.07554104      13.22837365         0.00000000       0.00000000       0.00000000          1
H         7.48616644       8.81636486      10.85509091         0.00000000       0.00000000       0.00000000          1
H         8.19148849      11.26582107      11.99832338         0.00000000       0.00000000       0.00000000          1
6
pbc=[F, F, F] list_num_par=6 frozen=false iter=20000 energy=-1.26974174 Lattice="15.00000000 0.00000000 0.00000000 0.00000000 15.00000000 0.00000000 0.00000000 0.00000000 15.00000000" energy_frozen_part=0.00000000 Properties=species:S:1:pos:R:3:velocities:R:3:Z:I:1
H         6.92125832      10.52688593      14.36857784         0.00000000       0.00000000       0.00000000          1
H         8.88930271       8.87555957      13.27122098         0.00000000       0.00000000       0.00000000          1
H         5.52214197      10.46576135      11.95134256         0.00000000       0.00000000       0.00000000          1
H         6.21235643       8.07791648      13.22652822         0.00000000       0.00000000       0.00000000          1
H         7.49019774       8.81443959      10.85398164         0.00000000       0.00000000       0.00000000          1
H         8.19909561      11.26340668      11.99604341         0.00000000       0.00000000       0.00000000          1
6
pbc=[F, F, F] list_num_par=6 frozen=false iter=20000 energy=-1.26974174 Lattice="15.00000000 0.00000000 0.00000000 0.00000000 15.00000000 0.00000000 0.00000000 0.00000000 15.00000000" energy_frozen_part=0.00000000 Properties=species:S:1:pos:R:3:velocities:R:3:Z:I:1
H         6.91747223      10.52494599      14.37166760         0.00000000       0.00000000       0.00000000          1
H         8.88752972       8.87827899      13.27092071         0.00000000       0.00000000       0.00000000          1
H         5.51597699      10.46314537      11.95582843         0.00000000       0.00000000       0.00000000          1
H         6.21206495       8.07557211      13.22833392         0.00000000       0.00000000       0.00000000          1
H         7.48603267       8.81647703      10.85507721         0.00000000       0.00000000       0.00000000          1
H         8.19144833      11.26585434      11.99841543         0.00000000       0.00000000       0.00000000          1
6
pbc=[F, F, F] list_num_par=6 frozen=false iter=20000 energy=-1.26974174 Lattice="15.00000000 0.00000000 0.00000000 0.00000000 15.00000000 0.00000000 0.00000000 0.00000000 15.00000000" energy_frozen_part=0.00000000 Properties=species:S:1:pos:R:3:velocities:R:3:Z:I:1
H         6.82283832      10.32914544      14.56364992         0.00000000       0.00000000       0.00000000          1
H         8.67291046       8.62182718      13.35261364         0.00000000       0.00000000       0.00000000          1
H         5.30013637      10.34043544      12.22152928         0.00000000       0.00000000       0.00000000          1
H         5.97092038       7.91760172      13.43981672         0.00000000       0.00000000       0.00000000          1
H         7.15020414       8.63311815      11.01049643         0.00000000       0.00000000       0.00000000          1
H         8.00212258      11.04465382      12.13431842         0.00000000       0.00000000       0.00000000          1
6
pbc=[F, F, F] list_num_par=6 frozen=false iter=20000 energy=-1.26974174 Lattice="15.00000000 0.00000000 0.00000000 0.00000000 15.00000000 0.00000000 0.00000000 0.00000000 15.00000000" energy_frozen_part=0.00000000 Properties=species:S:1:pos:R:3:velocities:R:3:Z:I:1
H         6.92122012      10.52685381      14.36860646         0.00000000       0.00000000       0.00000000          1
H         8.88928621       8.87557487      13.27120639         0.00000000       0.00000000       0.00000000          1
H         5.52212878      10.46580134      11.95135073         0.00000000       0.00000000       0.00000000          1
H         6.21234518       8.07791620      13.22645589         0.00000000       0.00000000       0.00000000          1
H         7.49020432       8.81451906      10.85395442         0.00000000       0.00000000       0.00000000          1
H         8.19906975      11.26346187      11.99609816         0.00000000       0.00000000       0.00000000          1
6
pbc=[F, F, F] list_num_par=6 frozen=false iter=20000 energy=-1.26974174 Lattice="15.00000000 0.00000000 0.00000000 0.00000000 15.00000000 0.00000000 0.00000000 0.00000000 15.00000000" energy_frozen_part=0.00000000 Properties=species:S:1:pos:R:3:velocities:R:3:Z:I:1
H         6.91752191      10.52505203      14.37136200         0.00000000       0.00000000       0.00000000          1
H         8.88763522       8.87836622      13.27074251         0.00000000       0.00000000       0.00000000          1
H         5.51600704      10.46297208      11.95553846         0.00000000       0.00000000       0.00000000          1
H         6.21220080       8.07554346      13.22825054         0.00000000       0.00000000       0.00000000          1
H         7.48612042       8.81628279      10.85491572         0.00000000       0.00000000       0.00000000          1
H         8.19144768      11.26579792      11.99803176         0.00000000       0.00000000       0.00000000          1
6
pbc=[F, F, F] list_num_par=6 frozen=false iter=20000 energy=-1.26974174 Lattice="15.00000000 0.00000000 0.00000000 0.00000000 15.00000000 0.00000000 0.00000000 0.00000000 15.00000000" energy_frozen_part=0.00000000 Properties=species:S:1:pos:R:3:velocities:R:3:Z:I:1
H         6.91765109      10.52499190      14.37158550         0.00000000       0.00000000       0.00000000          1
H         8.88762404       8.87823410      13.27083216         0.00000000       0.00000000       0.00000000          1
H         5.51609039      10.46316207      11.95577935         0.00000000       0.00000000       0.00000000          1
H         6.21213383       8.07560662      13.22832543         0.00000000       0.00000000       0.00000000          1
H         7.48606735       8.81640772      10.85502311         0.00000000       0.00000000       0.00000000          1
H         8.19158730      11.26579182      11.99827540         0.00000000       0.00000000       0.00000000          1
6
pbc=[F, F, F] list_num_par=6 frozen=false iter=20000 energy=-1.26974174 Lattice="15.00000000 0.00000000 0.00000000 0.00000000 15.00000000 0.00000000 0.00000000 0.00000000 15.00000000" energy_frozen_part=0.00000000 Properties=species:S:1:pos:R:3:velocities:R:3:Z:I:1
H         6.91760334      10.52505812      14.37135789         0.00000000       0.00000000       0.00000000          1
H         8.88767274       8.87835668      13.27067896         0.00000000       0.00000000       0.00000000          1
H         5.51599598      10.46294428      11.95559982         0.00000000       0.00000000       0.00000000          1
H         6.21224201       8.07552433      13.22831192         0.00000000       0.00000000       0.00000000          1
H         7.48606032       8.81624245      10.85491967         0.00000000       0.00000000       0.00000000          1
H         8.19143388      11.26576629      11.99796397         0.00000000       0.00000000       0.00000000          1
6
pbc=[F, F, F] list_num_par=6 frozen=false iter=20000 energy=-1.26974174 Lattice="15.00000000 0.00000000 0.00000000 0.00000000 15.00000000 0.00000000 0.00000000 0.00000000 15.00000000" energy_frozen_part=0.00000000 Properties=species:S:1:pos:R:3:velocities:R:3:Z:I:1
H         6.91753316      10.52481746      14.37166587         0.00000000       0.00000000       0.00000000          1
H         8.88763206       8.87826725      13.27082239         0.00000000       0.00000000       0.00000000          1
H         5.51608164      10.46317196      11.95578761         0.00000000       0.00000000       0.00000000          1
H         6.21218007       8.07551585      13.22811731         0.00000000       0.00000000       0.00000000          1
H         7.48618993       8.81663257      10.85494653         0.00000000       0.00000000       0.00000000          1
H         8.19153144      11.26593113      11.99849458         0.00000000       0.00000000       0.00000000          1
6
pbc=[F, F, F] list_num_par=6 frozen=false iter=20000 energy=-1.26974174 Lattice="15.00000000 0.00000000 0.00000000 0.00000000 15.00000000 0.00000000 0.00000000 0.00000000 15.00000000" energy_frozen_part=0.00000000 Properties=species:S:1:pos:R:3:velocities:R:3:Z:I:1
H         6.91748087      10.52494404      14.37166335         0.00000000       0.00000000       0.00000000          1
H         8.88755141       8.87829869      13.27089344         0.00000000       0.00000000       0.00000000          1
H         5.51598368      10.46313455      11.95582624         0.00000000       0.00000000       0.00000000          1
H         6.21209625       8.07556553      13.22832123         0.00000000       0.00000000       0.00000000          1
H         7.48605392       8.81649330      10.85506237         0.00000000       0.00000000       0.00000000          1
H         8.19144340      11.26587688      11.99841226         0.00000000       0.00000000       0.00000000          1
6
pbc=[F, F, F] list_num_par=6 frozen=false iter=20000 energy=-1.26974174 Lattice="15.00000000 0.00000000 0.00000000 0.00000000 15.00000000 0.00000000 0.00000000 0.00000000 15.00000000" energy_frozen_part=0.00000000 Properties=species:S:1:pos:R:3:velocities:R:3:Z:I:1
H         6.91614696      10.52556031      14.37063207         0.00000000       0.00000000       0.00000000          1
H         8.88641250       8.87900733      13.27009424         0.00000000       0.00000000       0.00000000          1