6
pbc=[F, F, F] list_num_par=6 frozen=false iter=9 energy=57.96119950 Lattice="15.00000000 0.00000000 0.00000000 0.00000000 15.00000000 0.00000000 0.00000000 0.00000000 15.00000000" energy_frozen_part=0.00000000 Properties=species:S:1:pos:R:3:velocities:R:3:Z:I:1
H         5.01677203       0.83055922      10.83447770         0.00000000       0.00000000       0.00000000          1
H        12.10551867       3.27670889       6.51843683         0.00000000       0.00000000       0.00000000          1
H         3.77190288       4.28428823      10.97121515         0.00000000       0.00000000       0.00000000          1
H         2.39751881       0.39778934       4.57389360         0.00000000       0.00000000       0.00000000          1
H         6.12424522       0.00400378      11.71737137         0.00000000       0.00000000       0.00000000          1
H        13.34987138       7.17640088       4.81197381         0.00000000       0.00000000       0.00000000          1
6
pbc=[F, F, F] list_num_par=6 frozen=false iter=19 energy=1.22901978 Lattice="15.00000000 0.00000000 0.00000000 0.00000000 15.00000000 0.00000000 0.00000000 0.00000000 15.00000000" energy_frozen_part=0.00000000 Properties=species:S:1:pos:R:3:velocities:R:3:Z:I:1
H         6.18795593      10.63316873       8.66533522         0.00000000       0.00000000       0.00000000          1
H         5.10628511      14.91778861       8.69998819         0.00000000       0.00000000       0.00000000          1
H         7.12985569       9.39035908      10.15927941         0.00000000       0.00000000       0.00000000          1
H        14.14818195       3.32972288      12.22198147         0.00000000       0.00000000       0.00000000          1
H        11.10085497      10.47874922      12.39999123         0.00000000       0.00000000       0.00000000          1
H        13.05741758      12.54227889      12.58620304         0.00000000       0.00000000       0.00000000          1
6
pbc=[F, F, F] list_num_par=6 frozen=false iter=29 energy=-0.00091582 Lattice="15.00000000 0.00000000 0.00000000 0.00000000 15.00000000 0.00000000 0.00000000 0.00000000 15.00000000" energy_frozen_part=0.00000000 Properties=species:S:1:pos:R:3:velocities:R:3:Z:I:1
H         3.04849128       3.13656005       2.04547631         0.00000000       0.00000000       0.00000000          1
H         6.54426531       5.22699304      14.00604652         0.00000000       0.00000000       0.00000000          1
H        10.54263501      13.47062586      14.97923622         0.00000000       0.00000000       0.00000000          1
H         1.49733879       8.51105259      10.42044616         0.00000000       0.00000000       0.00000000          1
H         5.36065042      14.87826764       4.54150557         0.00000000       0.00000000       0.00000000          1
H        11.28240220       6.18774973       3.75811414         0.00000000       0.00000000       0.00000000          1
6
pbc=[F, F, F] list_num_par=6 frozen=false iter=39 energy=-0.00504058 Lattice="15.00000000 0.00000000 0.00000000 0.00000000 15.00000000 0.00000000 0.00000000 0.00000000 15.00000000" energy_frozen_part=0.00000000 Properties=species:S:1:pos:R:3:velocities:R:3:Z:I:1
H        13.75521919      14.12139177       8.68066873         0.00000000       0.00000000       0.00000000          1
H         4.32281198       0.23051959      11.07183744         0.00000000       0.00000000       0.00000000          1
H         4.31154803       9.31976439       9.38567663         0.00000000       0.00000000       0.00000000          1
H         7.04546071       4.13790189       0.33173293         0.00000000       0.00000000       0.00000000          1
H        14.87608279       3.96309689       4.75242963         0.00000000       0.00000000       0.00000000          1
H         0.63705851       7.28150997       6.32428171         0.00000000       0.00000000       0.00000000          1
6
pbc=[F, F, F] list_num_par=6 frozen=false iter=49 energy=-0.00912933 Lattice="15.00000000 0.00000000 0.00000000 0.00000000 15.00000000 0.00000000 0.00000000 0.00000000 15.00000000" energy_frozen_part=0.00000000 Properties=species:S:1:pos:R:3:velocities:R:3:Z:I:1
H         9.26646188      11.56739237       7.97253300         0.00000000       0.00000000       0.00000000          1
H         1.94160499       9.32486637       0.50082015         0.00000000       0.00000000       0.00000000          1
H        14.45504896       7.26456251       0.25585462         0.00000000       0.00000000       0.00000000          1
H         7.22748309       2.30460297      14.91536848         0.00000000       0.00000000       0.00000000          1
H         2.13732580       8.74777701      12.28784230         0.00000000       0.00000000       0.00000000          1
H        10.55876662       7.39542775       6.08845432         0.00000000       0.00000000       0.00000000          1
6
pbc=[F, F, F] list_num_par=6 frozen=false iter=59 energy=-0.01194924 Lattice="15.00000000 0.00000000 0.00000000 0.00000000 15.00000000 0.00000000 0.00000000 0.00000000 15.00000000" energy_frozen_part=0.00000000 Properties=species:S:1:pos:R:3:velocities:R:3:Z:I:1
H         0.92491099       5.53019709       5.77665552         0.00000000       0.00000000       0.00000000          1
H        11.80162689       8.40939387       5.71421821         0.00000000       0.00000000       0.00000000          1
H         1.45748782       1.28292097      12.99726965         0.00000000       0.00000000       0.00000000          1
H        14.58729039       3.51294558       8.15471309         0.00000000       0.00000000       0.00000000          1
H         0.38604291      10.06964044       5.00053460         0.00000000       0.00000000       0.00000000          1
H         5.48287546      14.51322400       8.05515714         0.00000000       0.00000000       0.00000000          1
6
pbc=[F, F, F] list_num_par=6 frozen=false iter=69 energy=-0.01489507 Lattice="15.00000000 0.00000000 0.00000000 0.00000000 15.00000000 0.00000000 0.00000000 0.00000000 15.00000000" energy_frozen_part=0.00000000 Properties=species:S:1:pos:R:3:velocities:R:3:Z:I:1
H        10.18532609      12.34991361       6.10172160         0.00000000       0.00000000       0.00000000          1
H         0.29570182       1.66397671      12.11558119         0.00000000       0.00000000       0.00000000          1
H        10.11038831       8.22579042       4.67057326         0.00000000       0.00000000       0.00000000          1
H         3.66818992       0.09367507       0.55522591         0.00000000       0.00000000       0.00000000          1
H        13.72381157       9.16562740      10.99271837         0.00000000       0.00000000       0.00000000          1
H         0.19358361      14.12254029       1.12604814         0.00000000       0.00000000       0.00000000          1
6
pbc=[F, F, F] list_num_par=6 frozen=false iter=79 energy=-0.01888190 Lattice="15.00000000 0.00000000 0.00000000 0.00000000 15.00000000 0.00000000 0.00000000 0.00000000 15.00000000" energy_frozen_part=0.00000000 Properties=species:S:1:pos:R:3:velocities:R:3:Z:I:1
H        14.85159573       4.98872512       9.15823895         0.00000000       0.00000000       0.00000000          1
H         0.19060493       1.98968125      12.79133403         0.00000000       0.00000000       0.00000000          1
H         7.35316204       2.25494268       6.84066287         0.00000000       0.00000000       0.00000000          1
H        12.44050378      12.04182298       4.40763331         0.00000000       0.00000000       0.00000000          1
H         2.83623002       0.07644702       0.56145306         0.00000000       0.00000000       0.00000000          1
H         8.67761574       1.64330296      10.75054412         0.00000000       0.00000000       0.00000000          1
6
pbc=[F, F, F] list_num_par=6 frozen=false iter=89 energy=-0.02276328 Lattice="15.00000000 0.00000000 0.00000000 0.00000000 15.00000000 0.00000000 0.00000000 0.00000000 15.00000000" energy_frozen_part=0.00000000 Properties=species:S:1:pos:R:3:velocities:R:3:Z:I:1
H         2.18999242       9.79232414       3.21022547         0.00000000       0.00000000       0.00000000          1
H         6.62185419      11.10593330       2.11963532         0.00000000       0.00000000       0.00000000          1
H         5.51558816       6.73309383       0.83783927         0.00000000       0.00000000       0.00000000          1
H        13.16819329       9.51567987       8.15255987         0.00000000       0.00000000       0.00000000          1
H        11.45982618       0.14413656      10.43758011         0.00000000       0.00000000       0.00000000          1
H         1.06642780       7.01859874      10.90971398         0.00000000       0.00000000       0.00000000          1
6
pbc=[F, F, F] list_num_par=6 frozen=false iter=99 energy=-0.02521597 Lattice="15.00000000 0.00000000 0.00000000 0.00000000 15.00000000 0.00000000 0.00000000 0.00000000 15.00000000" energy_frozen_part=0.00000000 Properties=species:S:1:pos:R:3:velocities:R:3:Z:I:1
H        11.40452508      10.51460608       2.07492273         0.00000000       0.00000000       0.00000000          1
H         8.30310029       9.41435791      14.47924383         0.00000000       0.00000000       0.00000000          1
H         8.25567665      12.32401558       0.10659135         0.00000000       0.00000000       0.00000000          1
H        11.91443882      13.69082694       6.09097961         0.00000000       0.00000000       0.00000000          1
H         1.21163646      10.51337259       3.64592735         0.00000000       0.00000000       0.00000000          1
H         6.19872226       4.29398254       2.10551727         0.00000000       0.00000000       0.00000000          1
6
pbc=[F, F, F] list_num_par=6 frozen=false iter=109 energy=-0.02884541 Lattice="15.00000000 0.00000000 0.00000000 0.00000000 15.00000000 0.00000000 0.00000000 0.00000000 15.00000000" energy_frozen_part=0.00000000 Properties=species:S:1:pos:R:3:velocities:R:3:Z:I:1
H         6.54742959      11.08859138       0.11510644         0.00000000       0.00000000       0.00000000          1
H        10.01748361       2.47103692       0.73327597         0.00000000       0.00000000       0.00000000          1
H         6.80900621       1.63888835       7.81558590         0.00000000       0.00000000       0.00000000          1
H         0.41529588       6.98575275       9.23574810         0.00000000       0.00000000       0.00000000          1
H         5.60982664       0.40978463       2.97892102         0.00000000       0.00000000       0.00000000          1
H         3.87774153      12.95734785       2.62138367         0.00000000       0.00000000       0.00000000          1
6
pbc=[F, F, F] list_num_par=6 frozen=false iter=119 energy=-0.03393011 Lattice="15.00000000 0.00000000 0.00000000 0.00000000 15.00000000 0.00000000 0.00000000 0.00000000 15.00000000" energy_frozen_part=0.00000000 Properties=species:S:1:pos:R:3:velocities:R:3:Z:I:1
H        10.27988787      10.06033359       8.00107098         0.00000000       0.00000000       0.00000000          1
H        13.09533554      14.65973669       9.69905171         0.00000000       0.00000000       0.00000000          1
H         6.88582714      12.13368396      12.34014974         0.00000000       0.00000000       0.00000000          1
H        14.79194720       7.87665966       9.80011921         0.00000000       0.00000000       0.00000000          1
H         5.52610770       7.74349683       0.55311012         0.00000000       0.00000000       0.00000000          1
H         3.22145100       6.22022918       3.40921363         0.00000000       0.00000000       0.00000000          1
6
pbc=[F, F, F] list_num_par=6 frozen=false iter=129 energy=-0.03822483 Lattice="15.00000000 0.00000000 0.00000000 0.00000000 15.00000000 0.00000000 0.00000000 0.00000000 15.00000000" energy_frozen_part=0.00000000 Properties=species:S:1:pos:R:3:velocities:R:3:Z:I:1
H         7.61331010       9.93740178      11.30105126         0.00000000       0.00000000       0.00000000          1
H         8.80856111       5.41713137       4.52732171         0.00000000       0.00000000       0.00000000          1
H         4.33868409      11.25552954       5.21950062         0.00000000       0.00000000       0.00000000          1
H         0.10279178       7.99474505      12.18266786         0.00000000       0.00000000       0.00000000          1
H         2.16472257      12.17815899      10.55103353         0.00000000       0.00000000       0.00000000          1
H        10.48430425      10.37641874      13.92179166         0.00000000       0.00000000       0.00000000          1
6
pbc=[F, F, F] list_num_par=6 frozen=false iter=139 energy=-0.04311987 Lattice="15.00000000 0.00000000 0.00000000 0.00000000 15.00000000 0.00000000 0.00000000 0.00000000 15.00000000" energy_frozen_part=0.00000000 Properties=species:S:1:pos:R:3:velocities:R:3:Z:I:1
H         1.51911791       2.86242665       2.77156530         0.00000000       0.00000000       0.00000000          1
H         9.44205404       2.32902869       0.74745690         0.00000000       0.00000000       0.00000000          1
H         2.43601284       4.61482632      11.31541793         0.00000000       0.00000000       0.00000000          1
H         3.61301177       0.00695253       3.27982372         0.00000000       0.00000000       0.00000000          1
H        14.04420506      14.27894777       6.90451501         0.00000000       0.00000000       0.00000000          1
H         4.53881262       9.66249348       6.43694093         0.00000000       0.00000000       0.00000000          1
6
pbc=[F, F, F] list_num_par=6 frozen=false iter=149 energy=-0.04664867 Lattice="15.00000000 0.00000000 0.00000000 0.00000000 15.00000000 0.00000000 0.00000000 0.00000000 15.00000000" energy_frozen_part=0.00000000 Properties=species:S:1:pos:R:3:velocities:R:3:Z:I:1
H         4.57921182       5.44052721      14.46250277         0.00000000       0.00000000       0.00000000          1
H         4.82760497       3.54257201       9.63926025         0.00000000       0.00000000       0.00000000          1
H        13.27754892       3.20720378       4.66490478         0.00000000       0.00000000       0.00000000          1
H        11.04908460       6.85073940      13.52008681         0.00000000       0.00000000       0.00000000          1
H        12.77869720       4.57264182       6.74916553         0.00000000       0.00000000       0.00000000          1
H         3.36323270       3.55569242       4.86188164         0.00000000       0.00000000       0.00000000          1
6
pbc=[F, F, F] list_num_par=6 frozen=false iter=159 energy=-0.05132417 Lattice="15.00000000 0.00000000 0.00000000 0.00000000 15.00000000 0.00000000 0.00000000 0.00000000 15.00000000" energy_frozen_part=0.00000000 Properties=species:S:1:pos:R:3:velocities:R:3:Z:I:1
H        13.19586902      14.14730511      11.39461729         0.00000000       0.00000000       0.00000000          1
H        13.44868602       4.42351296       7.86310126         0.00000000       0.00000000       0.00000000          1
H         1.89250881      13.12248277       2.74202026         0.00000000       0.00000000       0.00000000          1
H        12.68112320      10.98846159      10.14136854         0.00000000       0.00000000       0.00000000          1
H         5.37694944       2.18254062       4.03497685         0.00000000       0.00000000       0.00000000          1
H         0.08197715       0.01170868      10.29120466         0.00000000       0.00000000       0.00000000          1
6
pbc=[F, F, F] list_num_par=6 frozen=false iter=169 energy=-0.05457757 Lattice="15.00000000 0.00000000 0.00000000 0.00000000 15.00000000 0.00000000 0.00000000 0.00000000 15.00000000" energy_frozen_part=0.00000000 Properties=species:S:1:pos:R:3:velocities:R:3:Z:I:1
H        10.78109697      14.19109783      10.00657635         0.00000000       0.00000000       0.00000000          1
H         2.67793849       4.27709131       9.66152469         0.00000000       0.00000000       0.00000000          1
H        14.57534049       8.20743880       4.94384155         0.00000000       0.00000000       0.00000000          1
H         5.31191954       2.18639874      10.60085233         0.00000000       0.00000000       0.00000000          1
H        11.60411284       9.12576092       9.82313394         0.00000000       0.00000000       0.00000000          1
H         1.52444735      12.40157918       8.28511684         0.00000000       0.00000000       0.00000000          1
6
pbc=[F, F, F] list_num_par=6 frozen=false iter=179 energy=-0.05862981 Lattice="15.00000000 0.00000000 0.00000000 0.00000000 15.00000000 0.00000000 0.00000000 0.00000000 15.00000000" energy_frozen_part=0.00000000 Properties=species:S:1:pos:R:3:velocities:R:3:Z:I:1
H        11.81403704       2.44797543       7.59265920         0.00000000       0.00000000       0.00000000          1
H         1.80497340       2.04438925       8.61557286         0.00000000       0.00000000       0.00000000          1
H         9.04913905       0.46496968       4.31941279         0.00000000       0.00000000       0.00000000          1
H        13.06854377       2.81256788      10.82983644         0.00000000       0.00000000       0.00000000          1
H         4.63883780       4.02780330      13.29474775         0.00000000       0.00000000       0.00000000          1
H         1.48994948       9.85698152       8.35741529         0.00000000       0.00000000       0.00000000          1
6
pbc=[F, F, F] list_num_par=6 frozen=false iter=189 energy=-0.06329934 Lattice="15.00000000 0.00000000 0.00000000 0.00000000 15.00000000 0.00000000 0.00000000 0.00000000 15.00000000" energy_frozen_part=0.00000000 Properties=species:S:1:pos:R:3:velocities:R:3:Z:I:1
H        14.73044047       7.22732186       6.64444916         0.00000000       0.00000000       0.00000000          1
H        12.93941705      13.48129955       9.21864422         0.00000000       0.00000000       0.00000000          1
H         6.56070715       9.39570039      13.60295484         0.00000000       0.00000000       0.00000000          1
H         8.91652995       5.69700432       7.60784440         0.00000000       0.00000000       0.00000000          1
H         3.51730108       9.47884840       9.60408700         0.00000000       0.00000000       0.00000000          1
H         9.36201012       7.94412195      12.06158725         0.00000000       0.00000000       0.00000000          1
6
pbc=[F, F, F] list_num_par=6 frozen=false iter=199 energy=-0.06678800 Lattice="15.00000000 0.00000000 0.00000000 0.00000000 15.00000000 0.00000000 0.00000000 0.00000000 15.00000000" energy_frozen_part=0.00000000 Properties=species:S:1:pos:R:3:velocities:R:3:Z:I:1
H        14.61879064      10.21418554       0.45921912         0.00000000       0.00000000       0.00000000          1
H         0.17669718       6.31048142       2.52778678         0.00000000       0.00000000       0.00000000          1
H         9.13265165      12.63552115      13.94048560         0.00000000       0.00000000       0.00000000          1
H         6.94366990       4.65971242       9.47329646         0.00000000       0.00000000       0.00000000          1
H         2.57321260       5.27831447       4.49541392         0.00000000       0.00000000       0.00000000          1
H         8.01258243       8.97503191       1.38364271         0.00000000       0.00000000       0.00000000          1
6
pbc=[F, F, F] list_num_par=6 frozen=false iter=209 energy=-0.07385120 Lattice="15.00000000 0.00000000 0.00000000 0.00000000 15.00000000 0.00000000 0.00000000 0.00000000 15.00000000" energy_frozen_part=0.00000000 Properties=species:S:1:pos:R:3:velocities:R:3:Z:I:1
H         9.79845500      11.36880971      12.87294337         0.00000000       0.00000000       0.00000000          1
H         3.67877974       3.41637029       4.32811976         0.00000000       0.00000000       0.00000000          1
H         2.73350637       4.44970130      11.94035982         0.00000000       0.00000000       0.00000000          1
H         5.76082138       5.28178584       6.01245964         0.00000000       0.00000000       0.00000000          1
H         8.33334435      10.12806945       7.95463169         0.00000000       0.00000000       0.00000000          1
H         3.38420737      13.59379868      13.35050495         0.00000000       0.00000000       0.00000000          1
6
pbc=[F, F, F] list_num_par=6 frozen=false iter=219 energy=-0.07782692 Lattice="15.00000000 0.00000000 0.00000000 0.00000000 15.00000000 0.00000000 0.00000000 0.00000000 15.00000000" energy_frozen_part=0.00000000 Properties=species:S:1:pos:R:3:velocities:R:3:Z:I:1
H        11.31979261      14.43520546       6.38198688         0.00000000       0.00000000       0.00000000          1
H         3.79559483      12.33644892      11.01024070         0.00000000       0.00000000       0.00000000          1
H        13.80068491      13.69404826       4.63683493         0.00000000       0.00000000       0.00000000          1
H        14.39796232       2.57012513      12.21311294         0.00000000       0.00000000       0.00000000          1
H        13.86734496       5.76446100       2.53896158         0.00000000       0.00000000       0.00000000          1
H         3.69102805       2.29931793       9.08521223         0.00000000       0.00000000       0.00000000          1
6
pbc=[F, F, F] list_num_par=6 frozen=false iter=229 energy=-0.08243188 Lattice="15.00000000 0.00000000 0.00000000 0.00000000 15.00000000 0.00000000 0.00000000 0.00000000 15.00000000" energy_frozen_part=0.00000000 Properties=species:S:1:pos:R:3:velocities:R:3:Z:I:1
H         3.36720333       0.36686583       2.89630123         0.00000000       0.00000000       0.00000000          1
H         2.06306548       1.45421320      10.61974935         0.00000000       0.00000000       0.00000000          1
H        11.79017519       6.27810614       5.06410990         0.00000000       0.00000000       0.00000000          1
H        13.39344648       7.44214785       7.74509247         0.00000000       0.00000000       0.00000000          1
H        14.14008076      10.01348037       2.32315207         0.00000000       0.00000000       0.00000000          1
H         4.11554618       1.27044522      14.27296620         0.00000000       0.00000000       0.00000000          1
6
pbc=[F, F, F] list_num_par=6 frozen=false iter=239 energy=-0.08744904 Lattice="15.00000000 0.00000000 0.00000000 0.00000000 15.00000000 0.00000000 0.00000000 0.00000000 15.00000000" energy_frozen_part=0.00000000 Properties=species:S:1:pos:R:3:velocities:R:3:Z:I:1
H         7.68898511       8.70091320      11.64491969         0.00000000       0.00000000       0.00000000          1
H         0.46899993       6.93336800       2.91767422         0.00000000       0.00000000       0.00000000          1
H         9.25338858       8.43042296       8.94672666         0.00000000       0.00000000       0.00000000          1
H         6.30711029       4.25617327       7.99344918         0.00000000       0.00000000       0.00000000          1
H        11.24738898      13.24235705      12.97189285         0.00000000       0.00000000       0.00000000          1
H         0.03698349      12.77093961       8.83428512         0.00000000       0.00000000       0.00000000          1
6
pbc=[F, F, F] list_num_par=6 frozen=false iter=249 energy=-0.09367119 Lattice="15.00000000 0.00000000 0.00000000 0.00000000 15.00000000 0.00000000 0.00000000 0.00000000 15.00000000" energy_frozen_part=0.00000000 Properties=species:S:1:pos:R:3:velocities:R:3:Z:I:1
H        14.00210503       5.53548261       8.01041134         0.00000000       0.00000000       0.00000000          1
H         3.64782345       0.26562227       5.97235338         0.00000000       0.00000000       0.00000000          1
H        11.85468896       3.35934403      11.75681093         0.00000000       0.00000000       0.00000000          1
H         4.81224342       0.71218579      14.37586306         0.00000000       0.00000000       0.00000000          1
H         9.50614339       7.01070326      13.98777360         0.00000000       0.00000000       0.00000000          1
H        13.66565723       1.55900836       9.71518932         0.00000000       0.00000000       0.00000000          1
6
pbc=[F, F, F] list_num_par=6 frozen=false iter=259 energy=-0.09669597 Lattice="15.00000000 0.00000000 0.00000000 0.00000000 15.00000000 0.00000000 0.00000000 0.00000000 15.00000000" energy_frozen_part=0.00000000 Properties=species:S:1:pos:R:3:velocities:R:3:Z:I:1
H         4.08042650      11.01587612       7.89688663         0.00000000       0.00000000       0.00000000          1
H         7.61840307       2.92174078       6.02084560         0.00000000       0.00000000       0.00000000          1
H         2.35365157       4.91290932       4.36923470         0.00000000       0.00000000       0.00000000          1
H         7.17239829      13.55655265       2.97894169         0.00000000       0.00000000       0.00000000          1
H        11.43373847       2.88245191       5.35604321         0.00000000       0.00000000       0.00000000          1
H         6.67021567       6.18527638       5.64061440         0.00000000       0.00000000       0.00000000          1
6
pbc=[F, F, F] list_num_par=6 frozen=false iter=269 energy=-0.09842618 Lattice="15.00000000 0.00000000 0.00000000 0.00000000 15.00000000 0.00000000 0.00000000 0.00000000 15.00000000" energy_frozen_part=0.00000000 Properties=species:S:1:pos:R:3:velocities:R:3:Z:I:1
H         9.82700073      11.60750363      10.80725775         0.00000000       0.00000000       0.00000000          1
H         7.00840602       4.53468097      14.78308493         0.00000000       0.00000000       0.00000000          1
H         0.06388770      10.51834344       1.92497871         0.00000000       0.00000000       0.00000000          1
H         5.14158977      10.60059001       3.72050640         0.00000000       0.00000000       0.00000000          1
H         9.62609766       9.53807432       9.17889036         0.00000000       0.00000000       0.00000000          1
H         8.83629672       7.89080755       3.60786366         0.00000000       0.00000000       0.00000000          1
6
pbc=[F, F, F] list_num_par=6 frozen=false iter=279 energy=-0.10054474 Lattice="15.00000000 0.00000000 0.00000000 0.00000000 15.00000000 0.00000000 0.00000000 0.00000000 15.00000000" energy_frozen_part=0.00000000 Properties=species:S:1:pos:R:3:velocities:R:3:Z:I:1
H        11.40036842       5.35259085      14.34518338         0.00000000       0.00000000       0.00000000          1
H         0.53427234       3.73134302       6.40159355         0.00000000       0.00000000       0.00000000          1
H         6.59767030       0.39609756       6.32297397         0.00000000       0.00000000       0.00000000          1
H        10.52377141      10.35591440       4.57319879         0.00000000       0.00000000       0.00000000          1
H        13.64858048      11.27901763      11.66716922         0.00000000       0.00000000       0.00000000          1
H         8.12143580       8.94060842       5.25309685         0.00000000       0.00000000       0.00000000          1
6
pbc=[F, F, F] list_num_par=6 frozen=false iter=289 energy=-0.10316544 Lattice="15.00000000 0.00000000 0.00000000 0.00000000 15.00000000 0.00000000 0.00000000 0.00000000 15.00000000" energy_frozen_part=0.00000000 Properties=species:S:1:pos:R:3:velocities:R:3:Z:I:1
H         8.96963691       5.06762586       8.30292197         0.00000000       0.00000000       0.00000000          1
H         0.09888136       4.48935738       2.07771566         0.00000000       0.00000000       0.00000000          1
H        13.72543855       4.59660165      13.49737739         0.00000000       0.00000000       0.00000000          1
H         3.48885240      10.18722926       1.10970427         0.00000000       0.00000000       0.00000000          1
H        13.22705315       0.55815615      13.38820651         0.00000000       0.00000000       0.00000000          1
H        10.79058077       6.62100550       6.34957600         0.00000000       0.00000000       0.00000000          1
6
pbc=[F, F, F] list_num_par=6 frozen=false iter=299 energy=-0.10680976 Lattice="15.00000000 0.00000000 0.00000000 0.00000000 15.00000000 0.00000000 0.00000000 0.00000000 15.00000000" energy_frozen_part=0.00000000 Properties=species:S:1:pos:R:3:velocities:R:3:Z:I:1
H        10.59662612      13.61784844       4.22960273         0.00000000       0.00000000       0.00000000          1
H         7.30581640       2.18236141      14.92196318         0.00000000       0.00000000       0.00000000          1
H        11.75510529      14.65093015      14.05518939         0.00000000       0.00000000       0.00000000          1
H         6.87547189      12.35221251      12.73021207         0.00000000       0.00000000       0.00000000          1
H         5.70668920      11.38559400       4.15967945         0.00000000       0.00000000       0.00000000          1
H         5.12747646      12.03241482      14.84462833         0.00000000       0.00000000       0.00000000          1
6
pbc=[F, F, F] list_num_par=6 frozen=false iter=309 energy=-0.10966618 Lattice="15.00000000 0.00000000 0.00000000 0.00000000 15.00000000 0.00000000 0.00000000 0.00000000 15.00000000" energy_frozen_part=0.00000000 Properties=species:S:1:pos:R:3:velocities:R:3:Z:I:1
H        10.67526206       9.16732574       4.41178843         0.00000000       0.00000000       0.00000000          1
H         1.24613130      11.01322933      10.70056240         0.00000000       0.00000000       0.00000000          1