6
pbc=[F, F, F] list_num_par=6 frozen=false iter=20000 energy=-1.26974174 Lattice="15.00000000 0.00000000 0.00000000 0.00000000 15.00000000 0.00000000 0.00000000 0.00000000 15.00000000" energy_frozen_part=0.00000000 Properties=species:S:1:pos:R:3:velocities:R:3:Z:I:1
H         4.59556286       3.39651993      10.43655315         0.00000000       0.00000000       0.00000000          1
H         2.30792023       4.13439697       9.01300218         0.00000000       0.00000000       0.00000000          1
H         3.06458283       1.65426186      11.99376805         0.00000000       0.00000000       0.00000000          1
H         2.34930789       4.34766382      11.79815783         0.00000000       0.00000000       0.00000000          1
H         3.02319388       1.44099253       9.20861563         0.00000000       0.00000000       0.00000000          1
H         0.77693430       2.39213069      10.57021308         0.00000000       0.00000000       0.00000000          1
6
pbc=[F, F, F] list_num_par=6 frozen=false iter=20000 energy=-1.26974174 Lattice="15.00000000 0.00000000 0.00000000 0.00000000 15.00000000 0.00000000 0.00000000 0.00000000 15.00000000" energy_frozen_part=0.00000000 Properties=species:S:1:pos:R:3:velocities:R:3:Z:I:1
H         4.66567078       2.44869743      10.33570162         0.00000000       0.00000000       0.00000000          1
H         2.96769816       3.46921300       8.36600525         0.00000000       0.00000000       0.00000000          1
H         2.84492873       0.39054488      10.83892451         0.00000000       0.00000000       0.00000000          1
H         2.01018888       3.05390580      10.95733095         0.00000000       0.00000000       0.00000000          1
H         3.80244041       0.80585526       8.24759485         0.00000000       0.00000000       0.00000000          1
H         1.14696230       1.41106136       8.86921974         0.00000000       0.00000000       0.00000000          1
6
pbc=[F, F, F] list_num_par=6 frozen=false iter=20000 energy=-1.26974174 Lattice="15.00000000 0.00000000 0.00000000 0.00000000 15.00000000 0.00000000 0.00000000 0.00000000 15.00000000" energy_frozen_part=0.00000000 Properties=species:S:1:pos:R:3:velocities:R:3:Z:I:1
H         4.66568770       2.44865614      10.33568947         0.00000000       0.00000000       0.00000000          1
H         2.96774242       3.46924416       8.36600844         0.00000000       0.00000000       0.00000000          1
H         2.84489651       0.39055092      10.83888802         0.00000000       0.00000000       0.00000000          1
H         2.01021866       3.05392507      10.95733296         0.00000000       0.00000000       0.00000000          1
H         3.80241989       0.80586355       8.24756268         0.00000000       0.00000000       0.00000000          1
H         1.14694857       1.41113972       8.86919968         0.00000000       0.00000000       0.00000000          1
6
pbc=[F, F, F] list_num_par=6 frozen=false iter=20000 energy=-1.26974174 Lattice="15.00000000 0.00000000 0.00000000 0.00000000 15.00000000 0.00000000 0.00000000 0.00000000 15.00000000" energy_frozen_part=0.00000000 Properties=species:S:1:pos:R:3:velocities:R:3:Z:I:1
H         4.66568349       2.44874326      10.33574113         0.00000000       0.00000000       0.00000000          1
H         2.96768154       3.46919219       8.36602648         0.00000000       0.00000000       0.00000000          1
H         2.84498379       0.39057295      10.83900345         0.00000000       0.00000000       0.00000000          1
H         2.01018869       3.05391520      10.95735698         0.00000000       0.00000000       0.00000000          1
H         3.80247498       0.80585416       8.24766111         0.00000000       0.00000000       0.00000000          1
H         1.14698256       1.41102154       8.86928537         0.00000000       0.00000000       0.00000000          1
6
pbc=[F, F, F] list_num_par=6 frozen=false iter=20000 energy=-1.26974174 Lattice="15.00000000 0.00000000 0.00000000 0.00000000 15.00000000 0.00000000 0.00000000 0.00000000 15.00000000" energy_frozen_part=0.00000000 Properties=species:S:1:pos:R:3:velocities:R:3:Z:I:1
H         4.66568184       2.44878776      10.33562181         0.00000000       0.00000000       0.00000000          1
H         2.96761225       3.46922817       8.36596347         0.00000000       0.00000000       0.00000000          1
H         2.84503970       0.39058277      10.83891849         0.00000000       0.00000000       0.00000000          1
H         2.01019958       3.05391043      10.95732730         0.00000000       0.00000000       0.00000000          1
H         3.80244717       0.80589789       8.24755496         0.00000000       0.00000000       0.00000000          1
H         1.14695902       1.41101852       8.86926884         0.00000000       0.00000000       0.00000000          1
6
pbc=[F, F, F] list_num_par=6 frozen=false iter=20000 energy=-1.26974174 Lattice="15.00000000 0.00000000 0.00000000 0.00000000 15.00000000 0.00000000 0.00000000 0.00000000 15.00000000" energy_frozen_part=0.00000000 Properties=species:S:1:pos:R:3:velocities:R:3:Z:I:1
H         4.66567626       2.44868973      10.33568763         0.00000000       0.00000000       0.00000000          1
H         2.96769290       3.46923034       8.36600386         0.00000000       0.00000000       0.00000000          1
H         2.84493091       0.39054498      10.83890566         0.00000000       0.00000000       0.00000000          1
H         2.01020059       3.05390741      10.95733176         0.00000000       0.00000000       0.00000000          1
H         3.80242253       0.80586901       8.24757248         0.00000000       0.00000000       0.00000000          1
H         1.14694577       1.41108181       8.86922826         0.00000000       0.00000000       0.00000000          1
6
pbc=[F, F, F] list_num_par=6 frozen=false iter=20000 energy=-1.26974174 Lattice="15.00000000 0.00000000 0.00000000 0.00000000 15.00000000 0.00000000 0.00000000 0.00000000 15.00000000" energy_frozen_part=0.00000000 Properties=species:S:1:pos:R:3:velocities:R:3:Z:I:1
H         4.66236915       2.44976323      10.33446362         0.00000000       0.00000000       0.00000000          1
H         2.95911423       3.48027890       8.37455045         0.00000000       0.00000000       0.00000000          1
H         2.84330599       0.38866047      10.83160427         0.00000000       0.00000000       0.00000000          1
H         2.00840977       3.05120534      10.96614592         0.00000000       0.00000000       0.00000000          1
H         3.79400935       0.81773630       8.24001608         0.00000000       0.00000000       0.00000000          1
H         1.14005017       1.41917525       8.87170197         0.00000000       0.00000000       0.00000000          1
6
pbc=[F, F, F] list_num_par=6 frozen=false iter=20000 energy=-1.26974174 Lattice="15.00000000 0.00000000 0.00000000 0.00000000 15.00000000 0.00000000 0.00000000 0.00000000 15.00000000" energy_frozen_part=0.00000000 Properties=species:S:1:pos:R:3:velocities:R:3:Z:I:1
H         4.59560575       3.39643627      10.43647553         0.00000000       0.00000000       0.00000000          1
H         2.30789670       4.13431582       9.01301367         0.00000000       0.00000000       0.00000000          1
H         3.06468328       1.65421546      11.99378905         0.00000000       0.00000000       0.00000000          1
H         2.34942534       4.34762126      11.79816484         0.00000000       0.00000000       0.00000000          1
H         3.02315436       1.44091172       9.20863272         0.00000000       0.00000000       0.00000000          1
H         0.77697533       2.39209451      10.57032689         0.00000000       0.00000000       0.00000000          1
6
pbc=[F, F, F] list_num_par=6 frozen=false iter=20000 energy=-1.26974174 Lattice="15.00000000 0.00000000 0.00000000 0.00000000 15.00000000 0.00000000 0.00000000 0.00000000 15.00000000" energy_frozen_part=0.00000000 Properties=species:S:1:pos:R:3:velocities:R:3:Z:I:1
H         4.59688656       3.42323305      10.44137123         0.00000000       0.00000000       0.00000000          1
H         2.30322429       4.14677785       9.02015862         0.00000000       0.00000000       0.00000000          1
H         3.08138097       1.65914003      11.98910271         0.00000000       0.00000000       0.00000000          1
H         2.34114995       4.34669185      11.80634920         0.00000000       0.00000000       0.00000000          1
H         3.04345279       1.45922270       9.20290763         0.00000000       0.00000000       0.00000000          1
H         0.78771776       2.38267607      10.56788427         0.00000000       0.00000000       0.00000000          1
6
pbc=[F, F, F] list_num_par=6 frozen=false iter=20000 energy=-1.26974174 Lattice="15.00000000 0.00000000 0.00000000 0.00000000 15.00000000 0.00000000 0.00000000 0.00000000 15.00000000" energy_frozen_part=0.00000000 Properties=species:S:1:pos:R:3:velocities:R:3:Z:I:1
H         4.66566762       2.44869721      10.33567948         0.00000000       0.00000000       0.00000000          1
H         2.96768711       3.46922537       8.36599362         0.00000000       0.00000000       0.00000000          1
H         2.84493397       0.39054543      10.83889022         0.00000000       0.00000000       0.00000000          1
H         2.01018955       3.05389825      10.95733085         0.00000000       0.00000000       0.00000000          1
H         3.80243210       0.80587592       8.24756306         0.00000000       0.00000000       0.00000000          1
H         1.14695289       1.41107866       8.86921270         0.00000000       0.00000000       0.00000000          1
6
pbc=[F, F, F] list_num_par=6 frozen=false iter=20000 energy=-1.26974174 Lattice="15.00000000 0.00000000 0.00000000 0.00000000 15.00000000 0.00000000 0.00000000 0.00000000 15.00000000" energy_frozen_part=0.00000000 Properties=species:S:1:pos:R:3:velocities:R:3:Z:I:1
H         4.66566304       2.44869442      10.33573921         0.00000000       0.00000000       0.00000000          1
H         2.96771483       3.46922663       8.36602269         0.00000000       0.00000000       0.00000000          1
H         2.84494943       0.39051284      10.83888340         0.00000000       0.00000000       0.00000000          1
H         2.01015829       3.05385577      10.95733020         0.00000000       0.00000000       0.00000000          1
H         3.80249600       0.80588334       8.24758432         0.00000000       0.00000000       0.00000000          1
H         1.14699217       1.41104352       8.86917422         0.00000000       0.00000000       0.00000000          1
6
pbc=[F, F, F] list_num_par=6 frozen=false iter=20000 energy=-1.26974174 Lattice="15.00000000 0.00000000 0.00000000 0.00000000 15.00000000 0.00000000 0.00000000 0.00000000 15.00000000" energy_frozen_part=0.00000000 Properties=species:S:1:pos:R:3:velocities:R:3:Z:I:1
H         4.59557659       3.39652384      10.43657475         0.00000000       0.00000000       0.00000000          1
H         2.30792701       4.13437180       9.01300767         0.00000000       0.00000000       0.00000000          1
H         3.06459511       1.65425616      11.99378504         0.00000000       0.00000000       0.00000000          1
H         2.34930160       4.34765054      11.79815771         0.00000000       0.00000000       0.00000000          1
H         3.02321920       1.44098088       9.20863240         0.00000000       0.00000000       0.00000000          1
H         0.77695362       2.39210640      10.57021302         0.00000000       0.00000000       0.00000000          1
6
pbc=[F, F, F] list_num_par=6 frozen=false iter=20000 energy=-1.26974174 Lattice="15.00000000 0.00000000 0.00000000 0.00000000 15.00000000 0.00000000 0.00000000 0.00000000 15.00000000" energy_frozen_part=0.00000000 Properties=species:S:1:pos:R:3:velocities:R:3:Z:I:1
H         4.66568123       2.44874662      10.33573481         0.00000000       0.00000000       0.00000000          1
H         2.96768353       3.46919602       8.36602683         0.00000000       0.00000000       0.00000000          1
H         2.84497834       0.39057891      10.83899964         0.00000000       0.00000000       0.00000000          1
H         2.01018762       3.05392351      10.95737039         0.00000000       0.00000000       0.00000000          1
H         3.80246952       0.80585004       8.24766172         0.00000000       0.00000000       0.00000000          1
H         1.14698209       1.41103651       8.86929392         0.00000000       0.00000000       0.00000000          1
6
pbc=[F, F, F] list_num_par=6 frozen=false iter=20000 energy=-1.26974174 Lattice="15.00000000 0.00000000 0.00000000 0.00000000 15.00000000 0.00000000 0.00000000 0.00000000 15.00000000" energy_frozen_part=0.00000000 Properties=species:S:1:pos:R:3:velocities:R:3:Z:I:1
H         4.66569302       2.44872120      10.33571937         0.00000000       0.00000000       0.00000000          1
H         2.96772659       3.46926466       8.36603330         0.00000000       0.00000000       0.00000000          1
H         2.84494894       0.39056294      10.83890748         0.00000000       0.00000000       0.00000000          1
H         2.01020632       3.05392139      10.95734587         0.00000000       0.00000000       0.00000000          1
H         3.80246520       0.80590640       8.24758804         0.00000000       0.00000000       0.00000000          1
H         1.14698366       1.41111205       8.86921153         0.00000000       0.00000000       0.00000000          1
6
pbc=[F, F, F] list_num_par=6 frozen=false iter=20000 energy=-1.26974174 Lattice="15.00000000 0.00000000 0.00000000 0.00000000 15.00000000 0.00000000 0.00000000 0.00000000 15.00000000" energy_frozen_part=0.00000000 Properties=species:S:1:pos:R:3:velocities:R:3:Z:I:1
H         4.66563451       2.44875075      10.33578536         0.00000000       0.00000000       0.00000000          1
H         2.96772840       3.46920821       8.36599729         0.00000000       0.00000000       0.00000000          1
H         2.84489677       0.39059223      10.83896614         0.00000000       0.00000000       0.00000000          1
H         2.01011416       3.05393768      10.95728489         0.00000000       0.00000000       0.00000000          1
H         3.80251080       0.80585959       8.24766978         0.00000000       0.00000000       0.00000000          1
H         1.14699800       1.41104445       8.86917718         0.00000000       0.00000000       0.00000000          1
6
pbc=[F, F, F] list_num_par=6 frozen=false iter=20000 energy=-1.26974174 Lattice="15.00000000 0.00000000 0.00000000 0.00000000 15.00000000 0.00000000 0.00000000 0.00000000 15.00000000" energy_frozen_part=0.00000000 Properties=species:S:1:pos:R:3:velocities:R:3:Z:I:1
H         4.59553104       3.39645355      10.43641612         0.00000000       0.00000000       0.00000000          1
H         2.30779946       4.13436609       9.01301117         0.00000000       0.00000000       0.00000000          1
H         3.06462992       1.65420044      11.99370547         0.00000000       0.00000000       0.00000000          1
H         2.34937028       4.34761333      11.79816634         0.00000000       0.00000000       0.00000000          1
H         3.02305209       1.44096049       9.20855427         0.00000000       0.00000000       0.00000000          1
H         0.77689872       2.39211368      10.57030746         0.00000000       0.00000000       0.00000000          1
6
pbc=[F, F, F] list_num_par=6 frozen=false iter=20000 energy=-1.26974174 Lattice="15.00000000 0.00000000 0.00000000 0.00000000 15.00000000 0.00000000 0.00000000 0.00000000 15.00000000" energy_frozen_part=0.00000000 Properties=species:S:1:pos:R:3:velocities:R:3:Z:I:1
H         4.66567365       2.44870070      10.33566684         0.00000000       0.00000000       0.00000000          1
H         2.96767116       3.46921947       8.36599127         0.00000000       0.00000000       0.00000000          1
H         2.84494535       0.39055131      10.83889430         0.00000000       0.00000000       0.00000000          1
H         2.01019840       3.05390599      10.95733153         0.00000000       0.00000000       0.00000000          1
H         3.80242105       0.80587080       8.24756347         0.00000000       0.00000000       0.00000000          1
H         1.14694408       1.41107531       8.86922389         0.00000000       0.00000000       0.00000000          1
6
pbc=[F, F, F] list_num_par=6 frozen=false iter=20000 energy=-1.26974174 Lattice="15.00000000 0.00000000 0.00000000 0.00000000 15.00000000 0.00000000 0.00000000 0.00000000 15.00000000" energy_frozen_part=0.00000000 Properties=species:S:1:pos:R:3:velocities:R:3:Z:I:1
H         4.66567606       2.44868844      10.33567105         0.00000000       0.00000000       0.00000000          1
H         2.96769341       3.46923166       8.36599618         0.00000000       0.00000000       0.00000000          1
H         2.84494299       0.39054604      10.83889047         0.00000000       0.00000000       0.00000000          1
H         2.01020507       3.05390869      10.95732453         0.00000000       0.00000000       0.00000000          1
H         3.80242480       0.80587473       8.24755479         0.00000000       0.00000000       0.00000000          1
H         1.14695075       1.41108297       8.86921669         0.00000000       0.00000000       0.00000000          1
6
pbc=[F, F, F] list_num_par=6 frozen=false iter=20000 energy=-1.26974174 Lattice="15.00000000 0.00000000 0.00000000 0.00000000 15.00000000 0.00000000 0.00000000 0.00000000 15.00000000" energy_frozen_part=0.00000000 Properties=species:S:1:pos:R:3:velocities:R:3:Z:I:1
H         4.66567915       2.44874973      10.33573962         0.00000000       0.00000000       0.00000000          1
H         2.96767770       3.46919347       8.36602451         0.00000000       0.00000000       0.00000000          1
H         2.84498085       0.39058032      10.83899953         0.00000000       0.00000000       0.00000000          1
H         2.01018683       3.05391940      10.95736012         0.00000000       0.00000000       0.00000000          1
H         3.80247265       0.80584983       8.24766281         0.00000000       0.00000000       0.00000000          1
H         1.14698086       1.41101510       8.86928921         0.00000000       0.00000000       0.00000000          1
6
pbc=[F, F, F] list_num_par=6 frozen=false iter=20000 energy=-1.26974174 Lattice="15.00000000 0.00000000 0.00000000 0.00000000 15.00000000 0.00000000 0.00000000 0.00000000 15.00000000" energy_frozen_part=0.00000000 Properties=species:S:1:pos:R:3:velocities:R:3:Z:I:1
H         4.66566636       2.44875947      10.33577815         0.00000000       0.00000000       0.00000000          1
H         2.96773068       3.46916308       8.36599211         0.00000000       0.00000000       0.00000000          1
H         2.84496474       0.39058337      10.83900620         0.00000000       0.00000000       0.00000000          1
H         2.01014975       3.05391357      10.95730412         0.00000000       0.00000000       0.00000000          1
H         3.80254550       0.80582330       8.24769724         0.00000000       0.00000000       0.00000000          1
H         1.14702633       1.41098652       8.86921354         0.00000000       0.00000000       0.00000000          1
6
pbc=[F, F, F] list_num_par=6 frozen=false iter=20000 energy=-1.26974174 Lattice="15.00000000 0.00000000 0.00000000 0.00000000 15.00000000 0.00000000 0.00000000 0.00000000 15.00000000" energy_frozen_part=0.00000000 Properties=species:S:1:pos:R:3:velocities:R:3:Z:I:1
H         4.66568467       2.44870618      10.33573130         0.00000000       0.00000000       0.00000000          1
H         2.96773445       3.46926217       8.36603822         0.00000000       0.00000000       0.00000000          1
H         2.84493846       0.39055824      10.83889768         0.00000000       0.00000000       0.00000000          1
H         2.01019620       3.05391467      10.95734595         0.00000000       0.00000000       0.00000000          1
H         3.80246495       0.80590511       8.24757936         0.00000000       0.00000000       0.00000000          1
H         1.14697994       1.41111003       8.86920531         0.00000000       0.00000000       0.00000000          1
6
pbc=[F, F, F] list_num_par=6 frozen=false iter=20000 energy=-1.26974174 Lattice="15.00000000 0.00000000 0.00000000 0.00000000 15.00000000 0.00000000 0.00000000 0.00000000 15.00000000" energy_frozen_part=0.00000000 Properties=species:S:1:pos:R:3:velocities:R:3:Z:I:1
H         4.66564519       2.44877543      10.33572053         0.00000000       0.00000000       0.00000000          1
H         2.96765438       3.46918045       8.36597463         0.00000000       0.00000000       0.00000000          1
H         2.84496426       0.39059127      10.83899396         0.00000000       0.00000000       0.00000000          1
H         2.01014858       3.05393442      10.95731583         0.00000000       0.00000000       0.00000000          1
H         3.80247079       0.80584415       8.24766013         0.00000000       0.00000000       0.00000000          1
H         1.14697409       1.41100176       8.86926270         0.00000000       0.00000000       0.00000000          1
6
pbc=[F, F, F] list_num_par=6 frozen=false iter=20000 energy=-1.26974174 Lattice="15.00000000 0.00000000 0.00000000 0.00000000 15.00000000 0.00000000 0.00000000 0.00000000 15.00000000" energy_frozen_part=0.00000000 Properties=species:S:1:pos:R:3:velocities:R:3:Z:I:1
H         4.66566604       2.44875837      10.33578856         0.00000000       0.00000000       0.00000000          1
H         2.96774408       3.46916319       8.36598829         0.00000000       0.00000000       0.00000000          1
H         2.84495439       0.39058356      10.83901321         0.00000000       0.00000000       0.00000000          1
H         2.01014039       3.05392316      10.95729536         0.00000000       0.00000000       0.00000000          1
H         3.80255606       0.80581879       8.24771347         0.00000000       0.00000000       0.00000000          1
H         1.14703325       1.41099343       8.86920579         0.00000000       0.00000000       0.00000000          1
6
pbc=[F, F, F] list_num_par=6 frozen=false iter=20000 energy=-1.26974174 Lattice="15.00000000 0.00000000 0.00000000 0.00000000 15.00000000 0.00000000 0.00000000 0.00000000 15.00000000" energy_frozen_part=0.00000000 Properties=species:S:1:pos:R:3:velocities:R:3:Z:I:1
H         4.66566118       2.44865978      10.33569938         0.00000000       0.00000000       0.00000000          1
H         2.96772294       3.46921448       8.36598383         0.00000000       0.00000000       0.00000000          1
H         2.84487843       0.39054485      10.83889378         0.00000000       0.00000000       0.00000000          1
H         2.01018518       3.05391614      10.95729977         0.00000000       0.00000000       0.00000000          1
H         3.80242136       0.80583799       8.24757841         0.00000000       0.00000000       0.00000000          1
H         1.14694591       1.41109314       8.86918507         0.00000000       0.00000000       0.00000000          1
6
pbc=[F, F, F] list_num_par=6 frozen=false iter=20000 energy=-1.26974174 Lattice="15.00000000 0.00000000 0.00000000 0.00000000 15.00000000 0.00000000 0.00000000 0.00000000 15.00000000" energy_frozen_part=0.00000000 Properties=species:S:1:pos:R:3:velocities:R:3:Z:I:1
H         4.66557439       2.44877165      10.33556805         0.00000000       0.00000000       0.00000000          1
H         2.96756847       3.46915726       8.36582745         0.00000000       0.00000000       0.00000000          1
H         2.84490720       0.39057615      10.83885945         0.00000000       0.00000000       0.00000000          1
H         2.01006557       3.05390874      10.95716578         0.00000000       0.00000000       0.00000000          1
H         3.80240920       0.80582273       8.24751629         0.00000000       0.00000000       0.00000000          1
H         1.14690580       1.41095935       8.86910699         0.00000000       0.00000000       0.00000000          1
6
pbc=[F, F, F] list_num_par=6 frozen=false iter=20000 energy=-1.26974174 Lattice="15.00000000 0.00000000 0.00000000 0.00000000 15.00000000 0.00000000 0.00000000 0.00000000 15.00000000" energy_frozen_part=0.00000000 Properties=species:S:1:pos:R:3:velocities:R:3:Z:I:1
H         4.66567351       2.44868564      10.33568088         0.00000000       0.00000000       0.00000000          1
H         2.96769224       3.46922502       8.36600437         0.00000000       0.00000000       0.00000000          1
H         2.84492531       0.39054842      10.83890114         0.00000000       0.00000000       0.00000000          1
H         2.01019719       3.05390423      10.95733511         0.00000000       0.00000000       0.00000000          1
H         3.80241742       0.80586239       8.24757222         0.00000000       0.00000000       0.00000000          1
H         1.14694378       1.41108065       8.86922622         0.00000000       0.00000000       0.00000000          1
6
pbc=[F, F, F] list_num_par=6 frozen=false iter=20000 energy=-1.26974174 Lattice="15.00000000 0.00000000 0.00000000 0.00000000 15.00000000 0.00000000 0.00000000 0.00000000 15.00000000" energy_frozen_part=0.00000000 Properties=species:S:1:pos:R:3:velocities:R:3:Z:I:1
H         4.66566188       2.44867506      10.33570454         0.00000000       0.00000000       0.00000000          1
H         2.96771511       3.46922107       8.36600029         0.00000000       0.00000000       0.00000000          1
H         2.84488920       0.39055448      10.83890864         0.00000000       0.00000000       0.00000000          1
H         2.01019009       3.05392154      10.95732541         0.00000000       0.00000000       0.00000000          1
H         3.80242091       0.80584775       8.24759252         0.00000000       0.00000000       0.00000000          1
H         1.14694430       1.41110729       8.86920799         0.00000000       0.00000000       0.00000000          1
6
pbc=[F, F, F] list_num_par=6 frozen=false iter=20000 energy=-1.26974174 Lattice="15.00000000 0.00000000 0.00000000 0.00000000 15.00000000 0.00000000 0.00000000 0.00000000 15.00000000" energy_frozen_part=0.00000000 Properties=species:S:1:pos:R:3:velocities:R:3:Z:I:1
H         4.66566333       2.44873400      10.33582118         0.00000000       0.00000000       0.00000000          1
H         2.96778202       3.46915486       8.36599873         0.00000000       0.00000000       0.00000000          1
H         2.84492619       0.39058637      10.83903192         0.00000000       0.00000000       0.00000000          1
H         2.01014495       3.05393577      10.95729329         0.00000000       0.00000000       0.00000000          1
H         3.80254947       0.80580472       8.24773367         0.00000000       0.00000000       0.00000000          1
H         1.14703282       1.41101023       8.86921359         0.00000000       0.00000000       0.00000000          1
6
pbc=[F, F, F] list_num_par=6 frozen=false iter=20000 energy=-1.26974174 Lattice="15.00000000 0.00000000 0.00000000 0.00000000 15.00000000 0.00000000 0.00000000 0.00000000 15.00000000" energy_frozen_part=0.00000000 Properties=species:S:1:pos:R:3:velocities:R:3:Z:I:1
H         4.59691208       3.42321104      10.44139365         0.00000000       0.00000000       0.00000000          1
H         2.30325073       4.14674285       9.02014713         0.00000000       0.00000000       0.00000000          1
H         3.08139345       1.65911999      11.98912183         0.00000000       0.00000000       0.00000000          1
H         2.34115321       4.34666442      11.80633741         0.00000000       0.00000000       0.00000000          1
H         3.04349544       1.45919507       9.20292808         0.00000000       0.00000000       0.00000000          1
H         0.78773736       2.38263706      10.56787341         0.00000000       0.00000000       0.00000000          1
6
pbc=[F, F, F] list_num_par=6 frozen=false iter=20000 energy=-1.26974174 Lattice="15.00000000 0.00000000 0.00000000 0.00000000 15.00000000 0.00000000 0.00000000 0.00000000 15.00000000" energy_frozen_part=0.00000000 Properties=species:S:1:pos:R:3:velocities:R:3:Z:I:1
H         4.66568367       2.44880731      10.33566346         0.00000000       0.00000000       0.00000000          1
H         2.96758429       3.46923515       8.36603271         0.00000000       0.00000000       0.00000000          1
H         2.84505413       0.39058504      10.83897440         0.00000000       0.00000000       0.00000000          1
H         2.01019678       3.05390204      10.95740195         0.00000000       0.00000000       0.00000000          1
H         3.80243423       0.80591083       8.24760956         0.00000000       0.00000000       0.00000000          1
H         1.14695538       1.41101063       8.86933818         0.00000000       0.00000000       0.00000000          1
6
pbc=[F, F, F] list_num_par=6 frozen=false iter=20000 energy=-1.26974174 Lattice="15.00000000 0.00000000 0.00000000 0.00000000 15.00000000 0.00000000 0.00000000 0.00000000 15.00000000" energy_frozen_part=0.00000000 Properties=species:S:1:pos:R:3:velocities:R:3:Z:I:1
H         4.66564361       2.44878003      10.33574949         0.00000000       0.00000000       0.00000000          1
H         2.96765480       3.46919936       8.36601779         0.00000000       0.00000000       0.00000000          1