6
pbc=[F, F, F] list_num_par=6 frozen=false iter=20000 energy=-1.26974174 Lattice="15.00000000 0.00000000 0.00000000 0.00000000 15.00000000 0.00000000 0.00000000 0.00000000 15.00000000" energy_frozen_part=0.00000000 Properties=species:S:1:pos:R:3:velocities:R:3:Z:I:1
H         8.21260784       1.83025297      13.80753929         0.00000000       0.00000000       0.00000000          1
H         6.18062861       1.09406363      12.03740141         0.00000000       0.00000000       0.00000000          1
H         6.31578216       3.61206985      10.83503803         0.00000000       0.00000000       0.00000000          1
H         8.34775519       4.34825775      12.60517259         0.00000000       0.00000000       0.00000000          1
H         5.91195557       3.40011115      13.59117603         0.00000000       0.00000000       0.00000000          1
H         8.61642624       2.04219939      11.05139929         0.00000000       0.00000000       0.00000000          1
6
pbc=[F, F, F] list_num_par=6 frozen=false iter=20000 energy=-1.26974174 Lattice="15.00000000 0.00000000 0.00000000 0.00000000 15.00000000 0.00000000 0.00000000 0.00000000 15.00000000" energy_frozen_part=0.00000000 Properties=species:S:1:pos:R:3:velocities:R:3:Z:I:1
H         8.21813439       1.83191218      13.80975479         0.00000000       0.00000000       0.00000000          1
H         6.18682845       1.09008584      12.04120882         0.00000000       0.00000000       0.00000000          1
H         6.31817049       3.60638424      10.83486153         0.00000000       0.00000000       0.00000000          1
H         8.34948438       4.34820673      12.60340196         0.00000000       0.00000000       0.00000000          1
H         5.91523008       3.39819479      13.59141796         0.00000000       0.00000000       0.00000000          1
H         8.62107554       2.04009939      11.05319764         0.00000000       0.00000000       0.00000000          1
6
pbc=[F, F, F] list_num_par=6 frozen=false iter=20000 energy=-1.26974174 Lattice="15.00000000 0.00000000 0.00000000 0.00000000 15.00000000 0.00000000 0.00000000 0.00000000 15.00000000" energy_frozen_part=0.00000000 Properties=species:S:1:pos:R:3:velocities:R:3:Z:I:1
H         8.21248363       1.83028316      13.80754459         0.00000000       0.00000000       0.00000000          1
H         6.18064214       1.09400662      12.03729349         0.00000000       0.00000000       0.00000000          1
H         6.31573457       3.61201249      10.83494025         0.00000000       0.00000000       0.00000000          1
H         8.34757944       4.34829391      12.60519072         0.00000000       0.00000000       0.00000000          1
H         5.91177486       3.40004784      13.59105655         0.00000000       0.00000000       0.00000000          1
H         8.61644911       2.04225737      11.05142480         0.00000000       0.00000000       0.00000000          1
6
pbc=[F, F, F] list_num_par=6 frozen=false iter=20000 energy=-1.26974174 Lattice="15.00000000 0.00000000 0.00000000 0.00000000 15.00000000 0.00000000 0.00000000 0.00000000 15.00000000" energy_frozen_part=0.00000000 Properties=species:S:1:pos:R:3:velocities:R:3:Z:I:1
H         8.21250889       1.83032027      13.80751516         0.00000000       0.00000000       0.00000000          1
H         6.18061723       1.09405773      12.03732111         0.00000000       0.00000000       0.00000000          1
H         6.31571037       3.61206776      10.83496059         0.00000000       0.00000000       0.00000000          1
H         8.34760362       4.34833386      12.60516367         0.00000000       0.00000000       0.00000000          1
H         5.91181006       3.40010870      13.59108625         0.00000000       0.00000000       0.00000000          1
H         8.61641102       2.04228702      11.05139215         0.00000000       0.00000000       0.00000000          1
6
pbc=[F, F, F] list_num_par=6 frozen=false iter=20000 energy=-1.26974174 Lattice="15.00000000 0.00000000 0.00000000 0.00000000 15.00000000 0.00000000 0.00000000 0.00000000 15.00000000" energy_frozen_part=0.00000000 Properties=species:S:1:pos:R:3:velocities:R:3:Z:I:1
H         8.21813366       1.83194422      13.80976199         0.00000000       0.00000000       0.00000000          1
H         6.18680339       1.09008093      12.04125645         0.00000000       0.00000000       0.00000000          1
H         6.31813766       3.60635835      10.83486421         0.00000000       0.00000000       0.00000000          1
H         8.34946397       4.34821852      12.60337290         0.00000000       0.00000000       0.00000000          1
H         5.91522491       3.39821467      13.59142425         0.00000000       0.00000000       0.00000000          1
H         8.62104449       2.04008567      11.05319803         0.00000000       0.00000000       0.00000000          1
6
pbc=[F, F, F] list_num_par=6 frozen=false iter=20000 energy=-1.26974174 Lattice="15.00000000 0.00000000 0.00000000 0.00000000 15.00000000 0.00000000 0.00000000 0.00000000 15.00000000" energy_frozen_part=0.00000000 Properties=species:S:1:pos:R:3:velocities:R:3:Z:I:1
H         8.21815028       1.83192291      13.80975563         0.00000000       0.00000000       0.00000000          1
H         6.18683691       1.09008337      12.04121900         0.00000000       0.00000000       0.00000000          1
H         6.31817528       3.60638480      10.83486379         0.00000000       0.00000000       0.00000000          1
H         8.34948856       4.34821689      12.60340379         0.00000000       0.00000000       0.00000000          1
H         5.91524137       3.39820182      13.59142291         0.00000000       0.00000000       0.00000000          1
H         8.62108304       2.04010628      11.05319631         0.00000000       0.00000000       0.00000000          1
6
pbc=[F, F, F] list_num_par=6 frozen=false iter=20000 energy=-1.26974174 Lattice="15.00000000 0.00000000 0.00000000 0.00000000 15.00000000 0.00000000 0.00000000 0.00000000 15.00000000" energy_frozen_part=0.00000000 Properties=species:S:1:pos:R:3:velocities:R:3:Z:I:1
H         8.21816371       1.83187539      13.80971849         0.00000000       0.00000000       0.00000000          1
H         6.18681940       1.09007117      12.04120191         0.00000000       0.00000000       0.00000000          1
H         6.31812895       3.60639498      10.83489613         0.00000000       0.00000000       0.00000000          1
H         8.34947021       4.34820222      12.60342342         0.00000000       0.00000000       0.00000000          1
H         5.91524393       3.39815083      13.59145201         0.00000000       0.00000000       0.00000000          1
H         8.62104584       2.04011855      11.05316423         0.00000000       0.00000000       0.00000000          1
6
pbc=[F, F, F] list_num_par=6 frozen=false iter=20000 energy=-1.26974174 Lattice="15.00000000 0.00000000 0.00000000 0.00000000 15.00000000 0.00000000 0.00000000 0.00000000 15.00000000" energy_frozen_part=0.00000000 Properties=species:S:1:pos:R:3:velocities:R:3:Z:I:1
H         8.21817844       1.83183950      13.80971273         0.00000000       0.00000000       0.00000000          1
H         6.18682361       1.09009226      12.04117835         0.00000000       0.00000000       0.00000000          1
H         6.31814894       3.60645240      10.83495567         0.00000000       0.00000000       0.00000000          1
H         8.34949835       4.34819614      12.60348287         0.00000000       0.00000000       0.00000000          1
H         5.91526805       3.39813096      13.59150159         0.00000000       0.00000000       0.00000000          1
H         8.62105193       2.04015676      11.05315668         0.00000000       0.00000000       0.00000000          1
6
pbc=[F, F, F] list_num_par=6 frozen=false iter=20000 energy=-1.26974174 Lattice="15.00000000 0.00000000 0.00000000 0.00000000 15.00000000 0.00000000 0.00000000 0.00000000 15.00000000" energy_frozen_part=0.00000000 Properties=species:S:1:pos:R:3:velocities:R:3:Z:I:1
H         8.21251933       1.83031346      13.80753011         0.00000000       0.00000000       0.00000000          1
H         6.18061294       1.09407210      12.03733265         0.00000000       0.00000000       0.00000000          1
H         6.31572694       3.61208572      10.83497730         0.00000000       0.00000000       0.00000000          1
H         8.34763805       4.34832801      12.60517914         0.00000000       0.00000000       0.00000000          1
H         5.91183316       3.40011781      13.59109977         0.00000000       0.00000000       0.00000000          1
H         8.61641586       2.04228884      11.05140741         0.00000000       0.00000000       0.00000000          1
6
pbc=[F, F, F] list_num_par=6 frozen=false iter=20000 energy=-1.26974174 Lattice="15.00000000 0.00000000 0.00000000 0.00000000 15.00000000 0.00000000 0.00000000 0.00000000 15.00000000" energy_frozen_part=0.00000000 Properties=species:S:1:pos:R:3:velocities:R:3:Z:I:1
H         8.21258448       1.83027778      13.80757901         0.00000000       0.00000000       0.00000000          1
H         6.18064337       1.09406925      12.03741383         0.00000000       0.00000000       0.00000000          1
H         6.31580456       3.61206418      10.83503547         0.00000000       0.00000000       0.00000000          1
H         8.34774784       4.34827825      12.60520234         0.00000000       0.00000000       0.00000000          1
H         5.91192997       3.40012831      13.59116154         0.00000000       0.00000000       0.00000000          1
H         8.61645881       2.04221280      11.05144932         0.00000000       0.00000000       0.00000000          1
6
pbc=[F, F, F] list_num_par=6 frozen=false iter=20000 energy=-1.26974174 Lattice="15.00000000 0.00000000 0.00000000 0.00000000 15.00000000 0.00000000 0.00000000 0.00000000 15.00000000" energy_frozen_part=0.00000000 Properties=species:S:1:pos:R:3:velocities:R:3:Z:I:1
H         8.21250731       1.83029017      13.80753464         0.00000000       0.00000000       0.00000000          1
H         6.18060552       1.09402437      12.03734783         0.00000000       0.00000000       0.00000000          1
H         6.31571753       3.61202957      10.83497281         0.00000000       0.00000000       0.00000000          1
H         8.34761310       4.34829624      12.60516573         0.00000000       0.00000000       0.00000000          1
H         5.91181274       3.40008402      13.59109899         0.00000000       0.00000000       0.00000000          1
H         8.61640752       2.04223459      11.05141262         0.00000000       0.00000000       0.00000000          1
6
pbc=[F, F, F] list_num_par=6 frozen=false iter=20000 energy=-1.26974174 Lattice="15.00000000 0.00000000 0.00000000 0.00000000 15.00000000 0.00000000 0.00000000 0.00000000 15.00000000" energy_frozen_part=0.00000000 Properties=species:S:1:pos:R:3:velocities:R:3:Z:I:1
H         8.21812442       1.83190084      13.80975586         0.00000000       0.00000000       0.00000000          1
H         6.18679940       1.09009677      12.04120592         0.00000000       0.00000000       0.00000000          1
H         6.31814823       3.60640520      10.83488871         0.00000000       0.00000000       0.00000000          1
H         8.34947365       4.34821517      12.60343251         0.00000000       0.00000000       0.00000000          1
H         5.91522421       3.39819030      13.59144233         0.00000000       0.00000000       0.00000000          1
H         8.62105338       2.04012005      11.05320189         0.00000000       0.00000000       0.00000000          1
6
pbc=[F, F, F] list_num_par=6 frozen=false iter=20000 energy=-1.26974174 Lattice="15.00000000 0.00000000 0.00000000 0.00000000 15.00000000 0.00000000 0.00000000 0.00000000 15.00000000" energy_frozen_part=0.00000000 Properties=species:S:1:pos:R:3:velocities:R:3:Z:I:1
H         8.21261476       1.83025448      13.80752368         0.00000000       0.00000000       0.00000000          1
H         6.18064002       1.09407091      12.03739090         0.00000000       0.00000000       0.00000000          1
H         6.31578214       3.61208090      10.83504240         0.00000000       0.00000000       0.00000000          1
H         8.34775932       4.34826864      12.60518025         0.00000000       0.00000000       0.00000000          1
H         5.91196402       3.40011259      13.59117612         0.00000000       0.00000000       0.00000000          1
H         8.61643751       2.04222844      11.05139033         0.00000000       0.00000000       0.00000000          1
6
pbc=[F, F, F] list_num_par=6 frozen=false iter=20000 energy=-1.26974174 Lattice="15.00000000 0.00000000 0.00000000 0.00000000 15.00000000 0.00000000 0.00000000 0.00000000 15.00000000" energy_frozen_part=0.00000000 Properties=species:S:1:pos:R:3:velocities:R:3:Z:I:1
H         8.21250459       1.83029701      13.80753079         0.00000000       0.00000000       0.00000000          1
H         6.18066835       1.09399633      12.03728339         0.00000000       0.00000000       0.00000000          1
H         6.31572715       3.61200845      10.83493606         0.00000000       0.00000000       0.00000000          1
H         8.34755794       4.34831606      12.60518436         0.00000000       0.00000000       0.00000000          1
H         5.91176552       3.40001946      13.59105598         0.00000000       0.00000000       0.00000000          1
H         8.61646710       2.04228310      11.05141658         0.00000000       0.00000000       0.00000000          1
6
pbc=[F, F, F] list_num_par=6 frozen=false iter=20000 energy=-1.26974174 Lattice="15.00000000 0.00000000 0.00000000 0.00000000 15.00000000 0.00000000 0.00000000 0.00000000 15.00000000" energy_frozen_part=0.00000000 Properties=species:S:1:pos:R:3:velocities:R:3:Z:I:1
H         8.21816764       1.83187987      13.80972134         0.00000000       0.00000000       0.00000000          1
H         6.18682121       1.09006110      12.04120867         0.00000000       0.00000000       0.00000000          1
H         6.31812947       3.60638491      10.83489934         0.00000000       0.00000000       0.00000000          1
H         8.34946903       4.34820395      12.60341542         0.00000000       0.00000000       0.00000000          1
H         5.91524313       3.39814859      13.59145008         0.00000000       0.00000000       0.00000000          1
H         8.62104665       2.04011952      11.05316497         0.00000000       0.00000000       0.00000000          1
6
pbc=[F, F, F] list_num_par=6 frozen=false iter=20000 energy=-1.26974174 Lattice="15.00000000 0.00000000 0.00000000 0.00000000 15.00000000 0.00000000 0.00000000 0.00000000 15.00000000" energy_frozen_part=0.00000000 Properties=species:S:1:pos:R:3:velocities:R:3:Z:I:1
H         8.21812953       1.83182438      13.80972312         0.00000000       0.00000000       0.00000000          1
H         6.18680260       1.09005408      12.04118036         0.00000000       0.00000000       0.00000000          1
H         6.31816184       3.60637670      10.83488788         0.00000000       0.00000000       0.00000000          1
H         8.34948733       4.34815305      12.60344291         0.00000000       0.00000000       0.00000000          1
H         5.91523158       3.39812760      13.59143846         0.00000000       0.00000000       0.00000000          1
H         8.62105434       2.04007860      11.05317150         0.00000000       0.00000000       0.00000000          1
6
pbc=[F, F, F] list_num_par=6 frozen=false iter=20000 energy=-1.26974174 Lattice="15.00000000 0.00000000 0.00000000 0.00000000 15.00000000 0.00000000 0.00000000 0.00000000 15.00000000" energy_frozen_part=0.00000000 Properties=species:S:1:pos:R:3:velocities:R:3:Z:I:1
H         8.21249657       1.83031068      13.80753083         0.00000000       0.00000000       0.00000000          1
H         6.18060248       1.09403988      12.03733217         0.00000000       0.00000000       0.00000000          1
H         6.31569718       3.61204952      10.83496811         0.00000000       0.00000000       0.00000000          1
H         8.34759050       4.34831019      12.60516630         0.00000000       0.00000000       0.00000000          1
H         5.91178904       3.40008989      13.59108741         0.00000000       0.00000000       0.00000000          1
H         8.61639917       2.04226265      11.05140233         0.00000000       0.00000000       0.00000000          1
6
pbc=[F, F, F] list_num_par=6 frozen=false iter=20000 energy=-1.26974174 Lattice="15.00000000 0.00000000 0.00000000 0.00000000 15.00000000 0.00000000 0.00000000 0.00000000 15.00000000" energy_frozen_part=0.00000000 Properties=species:S:1:pos:R:3:velocities:R:3:Z:I:1
H         8.21816432       1.83185186      13.80973454         0.00000000       0.00000000       0.00000000          1
H         6.18684802       1.09004002      12.04119139         0.00000000       0.00000000       0.00000000          1
H         6.31821341       3.60633517      10.83484657         0.00000000       0.00000000       0.00000000          1
H         8.34953738       4.34815205      12.60337869         0.00000000       0.00000000       0.00000000          1
H         5.91527565       3.39815981      13.59139592         0.00000000       0.00000000       0.00000000          1
H         8.62111057       2.04003511      11.05318347         0.00000000       0.00000000       0.00000000          1
6
pbc=[F, F, F] list_num_par=6 frozen=false iter=20000 energy=-1.26974174 Lattice="15.00000000 0.00000000 0.00000000 0.00000000 15.00000000 0.00000000 0.00000000 0.00000000 15.00000000" energy_frozen_part=0.00000000 Properties=species:S:1:pos:R:3:velocities:R:3:Z:I:1
H         8.21813852       1.83190829      13.80975201         0.00000000       0.00000000       0.00000000          1
H         6.18680908       1.09008694      12.04122861         0.00000000       0.00000000       0.00000000          1
H         6.31815205       3.60638294      10.83488784         0.00000000       0.00000000       0.00000000          1
H         8.34947832       4.34820999      12.60341217         0.00000000       0.00000000       0.00000000          1
H         5.91522781       3.39819134      13.59143907         0.00000000       0.00000000       0.00000000          1
H         8.62105965       2.04009988      11.05319947         0.00000000       0.00000000       0.00000000          1
6
pbc=[F, F, F] list_num_par=6 frozen=false iter=20000 energy=-1.26974174 Lattice="15.00000000 0.00000000 0.00000000 0.00000000 15.00000000 0.00000000 0.00000000 0.00000000 15.00000000" energy_frozen_part=0.00000000 Properties=species:S:1:pos:R:3:velocities:R:3:Z:I:1
H         8.21251988       1.83029204      13.80754232         0.00000000       0.00000000       0.00000000          1
H         6.18062917       1.09402266      12.03734344         0.00000000       0.00000000       0.00000000          1
H         6.31571442       3.61202374      10.83498051         0.00000000       0.00000000       0.00000000          1
H         8.34761163       4.34829657      12.60516960         0.00000000       0.00000000       0.00000000          1
H         5.91182031       3.40006466      13.59110477         0.00000000       0.00000000       0.00000000          1
H         8.61642292       2.04224731      11.05141633         0.00000000       0.00000000       0.00000000          1
6
pbc=[F, F, F] list_num_par=6 frozen=false iter=20000 energy=-1.26974174 Lattice="15.00000000 0.00000000 0.00000000 0.00000000 15.00000000 0.00000000 0.00000000 0.00000000 15.00000000" energy_frozen_part=0.00000000 Properties=species:S:1:pos:R:3:velocities:R:3:Z:I:1
H         8.21817026       1.83185029      13.80971959         0.00000000       0.00000000       0.00000000          1
H         6.18683273       1.09009288      12.04116952         0.00000000       0.00000000       0.00000000          1
H         6.31816117       3.60644775      10.83492869         0.00000000       0.00000000       0.00000000          1
H         8.34949364       4.34820330      12.60347367         0.00000000       0.00000000       0.00000000          1
H         5.91525998       3.39813972      13.59147331         0.00000000       0.00000000       0.00000000          1
H         8.62107309       2.04015589      11.05317073         0.00000000       0.00000000       0.00000000          1
6
pbc=[F, F, F] list_num_par=6 frozen=false iter=20000 energy=-1.26974174 Lattice="15.00000000 0.00000000 0.00000000 0.00000000 15.00000000 0.00000000 0.00000000 0.00000000 15.00000000" energy_frozen_part=0.00000000 Properties=species:S:1:pos:R:3:velocities:R:3:Z:I:1
H         8.21816830       1.83184267      13.80971335         0.00000000       0.00000000       0.00000000          1
H         6.18683272       1.09009917      12.04116055         0.00000000       0.00000000       0.00000000          1
H         6.31816665       3.60645105      10.83493190         0.00000000       0.00000000       0.00000000          1
H         8.34949763       4.34820504      12.60348357         0.00000000       0.00000000       0.00000000          1
H         5.91526004       3.39814187      13.59147888         0.00000000       0.00000000       0.00000000          1
H         8.62107667       2.04015986      11.05317126         0.00000000       0.00000000       0.00000000          1
6
pbc=[F, F, F] list_num_par=6 frozen=false iter=20000 energy=-1.26974174 Lattice="15.00000000 0.00000000 0.00000000 0.00000000 15.00000000 0.00000000 0.00000000 0.00000000 15.00000000" energy_frozen_part=0.00000000 Properties=species:S:1:pos:R:3:velocities:R:3:Z:I:1
H         8.21811962       1.83190530      13.80977124         0.00000000       0.00000000       0.00000000          1
H         6.18680298       1.09009721      12.04122736         0.00000000       0.00000000       0.00000000          1
H         6.31816112       3.60640214      10.83488450         0.00000000       0.00000000       0.00000000          1
H         8.34948190       4.34820606      12.60342685         0.00000000       0.00000000       0.00000000          1
H         5.91522782       3.39820684      13.59144182         0.00000000       0.00000000       0.00000000          1
H         8.62105915       2.04010288      11.05321615         0.00000000       0.00000000       0.00000000          1
6
pbc=[F, F, F] list_num_par=6 frozen=false iter=20000 energy=-1.26974174 Lattice="15.00000000 0.00000000 0.00000000 0.00000000 15.00000000 0.00000000 0.00000000 0.00000000 15.00000000" energy_frozen_part=0.00000000 Properties=species:S:1:pos:R:3:velocities:R:3:Z:I:1
H         8.21248018       1.83027124      13.80752436         0.00000000       0.00000000       0.00000000          1
H         6.18064218       1.09399830      12.03726402         0.00000000       0.00000000       0.00000000          1
H         6.31572972       3.61202597      10.83494197         0.00000000       0.00000000       0.00000000          1
H         8.34757242       4.34829400      12.60519751         0.00000000       0.00000000       0.00000000          1
H         5.91176861       3.40001869      13.59105004         0.00000000       0.00000000       0.00000000          1
H         8.61644995       2.04227559      11.05141571         0.00000000       0.00000000       0.00000000          1
6
pbc=[F, F, F] list_num_par=6 frozen=false iter=20000 energy=-1.26974174 Lattice="15.00000000 0.00000000 0.00000000 0.00000000 15.00000000 0.00000000 0.00000000 0.00000000 15.00000000" energy_frozen_part=0.00000000 Properties=species:S:1:pos:R:3:velocities:R:3:Z:I:1
H         8.21812877       1.83186630      13.80976160         0.00000000       0.00000000       0.00000000          1
H         6.18679651       1.09008775      12.04121356         0.00000000       0.00000000       0.00000000          1
H         6.31819958       3.60638669      10.83487989         0.00000000       0.00000000       0.00000000          1
H         8.34952300       4.34817174      12.60342428         0.00000000       0.00000000       0.00000000          1
H         5.91525390       3.39819664      13.59143250         0.00000000       0.00000000       0.00000000          1
H         8.62107255       2.04006222      11.05321539         0.00000000       0.00000000       0.00000000          1
6
pbc=[F, F, F] list_num_par=6 frozen=false iter=20000 energy=-1.26974174 Lattice="15.00000000 0.00000000 0.00000000 0.00000000 15.00000000 0.00000000 0.00000000 0.00000000 15.00000000" energy_frozen_part=0.00000000 Properties=species:S:1:pos:R:3:velocities:R:3:Z:I:1
H         8.21261163       1.83027358      13.80756910         0.00000000       0.00000000       0.00000000          1
H         6.18065892       1.09404911      12.03741653         0.00000000       0.00000000       0.00000000          1
H         6.31577830       3.61204847      10.83504474         0.00000000       0.00000000       0.00000000          1
H         8.34773175       4.34827304      12.60518995         0.00000000       0.00000000       0.00000000          1
H         5.91194257       3.40010326      13.59117849         0.00000000       0.00000000       0.00000000          1
H         8.61645020       2.04222298      11.05142996         0.00000000       0.00000000       0.00000000          1
6
pbc=[F, F, F] list_num_par=6 frozen=false iter=20000 energy=-1.26974174 Lattice="15.00000000 0.00000000 0.00000000 0.00000000 15.00000000 0.00000000 0.00000000 0.00000000 15.00000000" energy_frozen_part=0.00000000 Properties=species:S:1:pos:R:3:velocities:R:3:Z:I:1
H         8.21812884       1.83193962      13.80977234         0.00000000       0.00000000       0.00000000          1
H         6.18682291       1.09009696      12.04122956         0.00000000       0.00000000       0.00000000          1
H         6.31817882       3.60638667      10.83486256         0.00000000       0.00000000       0.00000000          1
H         8.34948131       4.34823015      12.60340803         0.00000000       0.00000000       0.00000000          1
H         5.91522160       3.39822318      13.59141882         0.00000000       0.00000000       0.00000000          1
H         8.62107631       2.04009894      11.05322051         0.00000000       0.00000000       0.00000000          1
6
pbc=[F, F, F] list_num_par=6 frozen=false iter=20000 energy=-1.26974174 Lattice="15.00000000 0.00000000 0.00000000 0.00000000 15.00000000 0.00000000 0.00000000 0.00000000 15.00000000" energy_frozen_part=0.00000000 Properties=species:S:1:pos:R:3:velocities:R:3:Z:I:1
H         8.21260696       1.83025205      13.80753961         0.00000000       0.00000000       0.00000000          1
H         6.18061874       1.09405888      12.03741668         0.00000000       0.00000000       0.00000000          1
H         6.31576090       3.61205762      10.83504171         0.00000000       0.00000000       0.00000000          1
H         8.34775740       4.34825076      12.60516246         0.00000000       0.00000000       0.00000000          1
H         5.91196238       3.40012414      13.59117879         0.00000000       0.00000000       0.00000000          1
H         8.61641665       2.04218849      11.05140274         0.00000000       0.00000000       0.00000000          1
6
pbc=[F, F, F] list_num_par=6 frozen=false iter=20000 energy=-1.26974174 Lattice="15.00000000 0.00000000 0.00000000 0.00000000 15.00000000 0.00000000 0.00000000 0.00000000 15.00000000" energy_frozen_part=0.00000000 Properties=species:S:1:pos:R:3:velocities:R:3:Z:I:1
H         8.21249121       1.83028829      13.80754019         0.00000000       0.00000000       0.00000000          1
H         6.18064564       1.09399477      12.03730221         0.00000000       0.00000000       0.00000000          1
H         6.31572988       3.61200360      10.83494849         0.00000000       0.00000000       0.00000000          1
H         8.34757746       4.34829536      12.60518504         0.00000000       0.00000000       0.00000000          1
H         5.91177664       3.40003419      13.59106241         0.00000000       0.00000000       0.00000000          1
H         8.61645213       2.04224981      11.05142732         0.00000000       0.00000000       0.00000000          1
6
pbc=[F, F, F] list_num_par=6 frozen=false iter=20000 energy=-1.26974174 Lattice="15.00000000 0.00000000 0.00000000 0.00000000 15.00000000 0.00000000 0.00000000 0.00000000 15.00000000" energy_frozen_part=0.00000000 Properties=species:S:1:pos:R:3:velocities:R:3:Z:I:1
H         8.21258637       1.83026741      13.80757623         0.00000000       0.00000000       0.00000000          1
H         6.18064127       1.09406165      12.03741080         0.00000000       0.00000000       0.00000000          1
H         6.31579844       3.61205091      10.83502555         0.00000000       0.00000000       0.00000000          1
H         8.34773832       4.34826559      12.60519123         0.00000000       0.00000000       0.00000000          1
H         5.91193237       3.40012255      13.59116387         0.00000000       0.00000000       0.00000000          1
H         8.61645450       2.04219441      11.05144624         0.00000000       0.00000000       0.00000000          1
6
pbc=[F, F, F] list_num_par=6 frozen=false iter=20000 energy=-1.26974174 Lattice="15.00000000 0.00000000 0.00000000 0.00000000 15.00000000 0.00000000 0.00000000 0.00000000 15.00000000" energy_frozen_part=0.00000000 Properties=species:S:1:pos:R:3:velocities:R:3:Z:I:1
H         8.21260668       1.83027399      13.80757416         0.00000000       0.00000000       0.00000000          1
H         6.18065901       1.09404801      12.03741688         0.00000000       0.00000000       0.00000000          1