6
pbc=[F, F, F] list_num_par=6 frozen=false iter=20000 energy=-1.26974174 Lattice="15.00000000 0.00000000 0.00000000 0.00000000 15.00000000 0.00000000 0.00000000 0.00000000 15.00000000" energy_frozen_part=0.00000000 Properties=species:S:1:pos:R:3:velocities:R:3:Z:I:1
H         3.48393807       5.02773651      12.31375106         0.00000000       0.00000000       0.00000000          1
H         1.11000091       5.65163168      10.97978482         0.00000000       0.00000000       0.00000000          1
H         2.27639645       7.51685194      12.70162854         0.00000000       0.00000000       0.00000000          1
H         2.29854154       7.95747205       9.94307094         0.00000000       0.00000000       0.00000000          1
H         4.67248310       7.33357403      11.27704059         0.00000000       0.00000000       0.00000000          1
H         3.50608648       5.46835265       9.55519239         0.00000000       0.00000000       0.00000000          1
6
pbc=[F, F, F] list_num_par=6 frozen=false iter=20000 energy=-1.26974174 Lattice="15.00000000 0.00000000 0.00000000 0.00000000 15.00000000 0.00000000 0.00000000 0.00000000 15.00000000" energy_frozen_part=0.00000000 Properties=species:S:1:pos:R:3:velocities:R:3:Z:I:1
H         3.48396512       5.02775573      12.31374657         0.00000000       0.00000000       0.00000000          1
H         1.10999800       5.65162076      10.97981463         0.00000000       0.00000000       0.00000000          1
H         2.27642110       7.51686401      12.70162390         0.00000000       0.00000000       0.00000000          1
H         2.29850998       7.95744614       9.94305676         0.00000000       0.00000000       0.00000000          1
H         4.67247723       7.33358962      11.27698898         0.00000000       0.00000000       0.00000000          1
H         3.50606089       5.46833563       9.55518865         0.00000000       0.00000000       0.00000000          1
6
pbc=[F, F, F] list_num_par=6 frozen=false iter=20000 energy=-1.26974174 Lattice="15.00000000 0.00000000 0.00000000 0.00000000 15.00000000 0.00000000 0.00000000 0.00000000 15.00000000" energy_frozen_part=0.00000000 Properties=species:S:1:pos:R:3:velocities:R:3:Z:I:1
H         3.48393277       5.02777953      12.31378671         0.00000000       0.00000000       0.00000000          1
H         1.10993567       5.65152241      10.97984287         0.00000000       0.00000000       0.00000000          1
H         2.27627660       7.51684239      12.70161324         0.00000000       0.00000000       0.00000000          1
H         2.29835738       7.95738522       9.94303910         0.00000000       0.00000000       0.00000000          1
H         4.67234500       7.33363988      11.27698209         0.00000000       0.00000000       0.00000000          1
H         3.50600445       5.46831983       9.55521581         0.00000000       0.00000000       0.00000000          1
6
pbc=[F, F, F] list_num_par=6 frozen=false iter=20000 energy=-1.26974174 Lattice="15.00000000 0.00000000 0.00000000 0.00000000 15.00000000 0.00000000 0.00000000 0.00000000 15.00000000" energy_frozen_part=0.00000000 Properties=species:S:1:pos:R:3:velocities:R:3:Z:I:1
H         3.48397052       5.02774495      12.31375266         0.00000000       0.00000000       0.00000000          1
H         1.11000891       5.65160961      10.97981594         0.00000000       0.00000000       0.00000000          1
H         2.27643082       7.51686386      12.70161098         0.00000000       0.00000000       0.00000000          1
H         2.29852868       7.95743388       9.94303799         0.00000000       0.00000000       0.00000000          1
H         4.67248964       7.33356713      11.27697637         0.00000000       0.00000000       0.00000000          1
H         3.50606778       5.46832196       9.55517912         0.00000000       0.00000000       0.00000000          1
6
pbc=[F, F, F] list_num_par=6 frozen=false iter=20000 energy=-1.26974174 Lattice="15.00000000 0.00000000 0.00000000 0.00000000 15.00000000 0.00000000 0.00000000 0.00000000 15.00000000" energy_frozen_part=0.00000000 Properties=species:S:1:pos:R:3:velocities:R:3:Z:I:1
H         3.48397815       5.02783676      12.31396339         0.00000000       0.00000000       0.00000000          1
H         1.11002783       5.65152244      10.97992738         0.00000000       0.00000000       0.00000000          1
H         2.27630414       7.51691417      12.70167037         0.00000000       0.00000000       0.00000000          1
H         2.29846478       7.95734844       9.94308123         0.00000000       0.00000000       0.00000000          1
H         4.67241158       7.33366637      11.27711823         0.00000000       0.00000000       0.00000000          1
H         3.50613267       5.46826788       9.55537635         0.00000000       0.00000000       0.00000000          1
6
pbc=[F, F, F] list_num_par=6 frozen=false iter=20000 energy=-1.26974174 Lattice="15.00000000 0.00000000 0.00000000 0.00000000 15.00000000 0.00000000 0.00000000 0.00000000 15.00000000" energy_frozen_part=0.00000000 Properties=species:S:1:pos:R:3:velocities:R:3:Z:I:1
H         3.48398265       5.02783563      12.31397477         0.00000000       0.00000000       0.00000000          1
H         1.11002392       5.65150527      10.97994236         0.00000000       0.00000000       0.00000000          1
H         2.27629935       7.51691010      12.70166077         0.00000000       0.00000000       0.00000000          1
H         2.29846240       7.95733068       9.94307325         0.00000000       0.00000000       0.00000000          1
H         4.67241129       7.33366084      11.27711252         0.00000000       0.00000000       0.00000000          1
H         3.50613175       5.46825262       9.55538107         0.00000000       0.00000000       0.00000000          1
6
pbc=[F, F, F] list_num_par=6 frozen=false iter=20000 energy=-1.26974174 Lattice="15.00000000 0.00000000 0.00000000 0.00000000 15.00000000 0.00000000 0.00000000 0.00000000 15.00000000" energy_frozen_part=0.00000000 Properties=species:S:1:pos:R:3:velocities:R:3:Z:I:1
H         3.48390773       5.02777788      12.31378667         0.00000000       0.00000000       0.00000000          1
H         1.10992873       5.65156716      10.97983758         0.00000000       0.00000000       0.00000000          1
H         2.27627592       7.51685356      12.70164659         0.00000000       0.00000000       0.00000000          1
H         2.29837274       7.95743453       9.94308300         0.00000000       0.00000000       0.00000000          1
H         4.67235132       7.33363914      11.27702552         0.00000000       0.00000000       0.00000000          1
H         3.50599909       5.46836505       9.55521403         0.00000000       0.00000000       0.00000000          1
6
pbc=[F, F, F] list_num_par=6 frozen=false iter=20000 energy=-1.26974174 Lattice="15.00000000 0.00000000 0.00000000 0.00000000 15.00000000 0.00000000 0.00000000 0.00000000 15.00000000" energy_frozen_part=0.00000000 Properties=species:S:1:pos:R:3:velocities:R:3:Z:I:1
H         3.48393717       5.02773367      12.31374796         0.00000000       0.00000000       0.00000000          1
H         1.11000097       5.65164619      10.97979611         0.00000000       0.00000000       0.00000000          1
H         2.27641723       7.51685869      12.70164024         0.00000000       0.00000000       0.00000000          1
H         2.29854973       7.95747615       9.94308425         0.00000000       0.00000000       0.00000000          1
H         4.67249103       7.33355867      11.27702865         0.00000000       0.00000000       0.00000000          1
H         3.50606610       5.46834974       9.55518796         0.00000000       0.00000000       0.00000000          1
6
pbc=[F, F, F] list_num_par=6 frozen=false iter=20000 energy=-1.26974174 Lattice="15.00000000 0.00000000 0.00000000 0.00000000 15.00000000 0.00000000 0.00000000 0.00000000 15.00000000" energy_frozen_part=0.00000000 Properties=species:S:1:pos:R:3:velocities:R:3:Z:I:1
H         3.31393348       5.07969774      12.36914174         0.00000000       0.00000000       0.00000000          1
H         0.95087034       5.81561882      11.07352383         0.00000000       0.00000000       0.00000000          1
H         2.17887886       7.58636511      12.85136774         0.00000000       0.00000000       0.00000000          1
H         2.19768047       8.12231373      10.10971378         0.00000000       0.00000000       0.00000000          1
H         4.56074548       7.38638957      11.40533633         0.00000000       0.00000000       0.00000000          1
H         3.33273898       5.61563936       9.62748957         0.00000000       0.00000000       0.00000000          1
6
pbc=[F, F, F] list_num_par=6 frozen=false iter=20000 energy=-1.26974174 Lattice="15.00000000 0.00000000 0.00000000 0.00000000 15.00000000 0.00000000 0.00000000 0.00000000 15.00000000" energy_frozen_part=0.00000000 Properties=species:S:1:pos:R:3:velocities:R:3:Z:I:1
H         3.48279550       5.02869506      12.31517152         0.00000000       0.00000000       0.00000000          1
H         1.10882435       5.65254413      10.98123985         0.00000000       0.00000000       0.00000000          1
H         2.27568513       7.51812147      12.70239438         0.00000000       0.00000000       0.00000000          1
H         2.29763139       7.95788020       9.94370155         0.00000000       0.00000000       0.00000000          1
H         4.67160454       7.33402273      11.27762875         0.00000000       0.00000000       0.00000000          1
H         3.50474312       5.46845744       9.55647287         0.00000000       0.00000000       0.00000000          1
6
pbc=[F, F, F] list_num_par=6 frozen=false iter=20000 energy=-1.26974174 Lattice="15.00000000 0.00000000 0.00000000 0.00000000 15.00000000 0.00000000 0.00000000 0.00000000 15.00000000" energy_frozen_part=0.00000000 Properties=species:S:1:pos:R:3:velocities:R:3:Z:I:1
H         3.48393034       5.02781032      12.31380229         0.00000000       0.00000000       0.00000000          1
H         1.10994551       5.65150175      10.97981689         0.00000000       0.00000000       0.00000000          1
H         2.27622438       7.51685423      12.70159987         0.00000000       0.00000000       0.00000000          1
H         2.29833465       7.95738423       9.94303062         0.00000000       0.00000000       0.00000000          1
H         4.67231303       7.33368582      11.27700796         0.00000000       0.00000000       0.00000000          1
H         3.50603866       5.46833717       9.55522294         0.00000000       0.00000000       0.00000000          1
6
pbc=[F, F, F] list_num_par=6 frozen=false iter=20000 energy=-1.26974174 Lattice="15.00000000 0.00000000 0.00000000 0.00000000 15.00000000 0.00000000 0.00000000 0.00000000 15.00000000" energy_frozen_part=0.00000000 Properties=species:S:1:pos:R:3:velocities:R:3:Z:I:1
H         3.31400972       5.07972614      12.36916304         0.00000000       0.00000000       0.00000000          1
H         0.95090298       5.81566306      11.07363227         0.00000000       0.00000000       0.00000000          1
H         2.17899629       7.58641332      12.85142004         0.00000000       0.00000000       0.00000000          1
H         2.19768673       8.12233655      10.10975351         0.00000000       0.00000000       0.00000000          1
H         4.56079913       7.38639897      11.40529325         0.00000000       0.00000000       0.00000000          1
H         3.33270306       5.61566121       9.62749915         0.00000000       0.00000000       0.00000000          1
6
pbc=[F, F, F] list_num_par=6 frozen=false iter=20000 energy=-1.26974174 Lattice="15.00000000 0.00000000 0.00000000 0.00000000 15.00000000 0.00000000 0.00000000 0.00000000 15.00000000" energy_frozen_part=0.00000000 Properties=species:S:1:pos:R:3:velocities:R:3:Z:I:1
H         3.48394399       5.02776331      12.31375092         0.00000000       0.00000000       0.00000000          1
H         1.11000046       5.65163899      10.97980074         0.00000000       0.00000000       0.00000000          1
H         2.27640920       7.51687494      12.70162872         0.00000000       0.00000000       0.00000000          1
H         2.29853387       7.95747083       9.94306900         0.00000000       0.00000000       0.00000000          1
H         4.67248021       7.33358650      11.27700814         0.00000000       0.00000000       0.00000000          1
H         3.50607010       5.46835863       9.55518365         0.00000000       0.00000000       0.00000000          1
6
pbc=[F, F, F] list_num_par=6 frozen=false iter=20000 energy=-1.26974174 Lattice="15.00000000 0.00000000 0.00000000 0.00000000 15.00000000 0.00000000 0.00000000 0.00000000 15.00000000" energy_frozen_part=0.00000000 Properties=species:S:1:pos:R:3:velocities:R:3:Z:I:1
H         3.48398341       5.02784282      12.31397568         0.00000000       0.00000000       0.00000000          1
H         1.11001836       5.65151885      10.97994991         0.00000000       0.00000000       0.00000000          1
H         2.27630464       7.51692214      12.70167242         0.00000000       0.00000000       0.00000000          1
H         2.29846043       7.95733967       9.94307855         0.00000000       0.00000000       0.00000000          1
H         4.67241430       7.33366583      11.27711232         0.00000000       0.00000000       0.00000000          1
H         3.50612243       5.46826013       9.55538235         0.00000000       0.00000000       0.00000000          1
6
pbc=[F, F, F] list_num_par=6 frozen=false iter=20000 energy=-1.26974174 Lattice="15.00000000 0.00000000 0.00000000 0.00000000 15.00000000 0.00000000 0.00000000 0.00000000 15.00000000" energy_frozen_part=0.00000000 Properties=species:S:1:pos:R:3:velocities:R:3:Z:I:1
H         3.48392555       5.02778209      12.31377797         0.00000000       0.00000000       0.00000000          1
H         1.10993623       5.65152505      10.97984333         0.00000000       0.00000000       0.00000000          1
H         2.27628246       7.51685544      12.70160938         0.00000000       0.00000000       0.00000000          1
H         2.29836082       7.95738447       9.94304391         0.00000000       0.00000000       0.00000000          1
H         4.67235451       7.33363451      11.27697739         0.00000000       0.00000000       0.00000000          1
H         3.50599872       5.46831509       9.55520745         0.00000000       0.00000000       0.00000000          1
6
pbc=[F, F, F] list_num_par=6 frozen=false iter=20000 energy=-1.26974174 Lattice="15.00000000 0.00000000 0.00000000 0.00000000 15.00000000 0.00000000 0.00000000 0.00000000 15.00000000" energy_frozen_part=0.00000000 Properties=species:S:1:pos:R:3:velocities:R:3:Z:I:1
H         3.48390410       5.02778049      12.31377683         0.00000000       0.00000000       0.00000000          1
H         1.10993081       5.65156230      10.97982664         0.00000000       0.00000000       0.00000000          1
H         2.27626031       7.51684933      12.70163992         0.00000000       0.00000000       0.00000000          1
H         2.29836781       7.95742732       9.94307941         0.00000000       0.00000000       0.00000000          1
H         4.67234107       7.33365280      11.27702942         0.00000000       0.00000000       0.00000000          1
H         3.50600992       5.46836636       9.55521126         0.00000000       0.00000000       0.00000000          1
6
pbc=[F, F, F] list_num_par=6 frozen=false iter=20000 energy=-1.26974174 Lattice="15.00000000 0.00000000 0.00000000 0.00000000 15.00000000 0.00000000 0.00000000 0.00000000 15.00000000" energy_frozen_part=0.00000000 Properties=species:S:1:pos:R:3:velocities:R:3:Z:I:1
H         3.32380172       5.09838811      12.39536194         0.00000000       0.00000000       0.00000000          1
H         0.94944093       5.83041107      11.11831960         0.00000000       0.00000000       0.00000000          1
H         2.21837827       7.62461430      12.84312829         0.00000000       0.00000000       0.00000000          1
H         2.20333846       8.10577081      10.09130471         0.00000000       0.00000000       0.00000000          1
H         4.57769485       7.37374670      11.36834550         0.00000000       0.00000000       0.00000000          1
H         3.30876284       5.57954563       9.64354034         0.00000000       0.00000000       0.00000000          1
6
pbc=[F, F, F] list_num_par=6 frozen=false iter=20000 energy=-1.26974174 Lattice="15.00000000 0.00000000 0.00000000 0.00000000 15.00000000 0.00000000 0.00000000 0.00000000 15.00000000" energy_frozen_part=0.00000000 Properties=species:S:1:pos:R:3:velocities:R:3:Z:I:1
H         3.48402139       5.02782046      12.31381771         0.00000000       0.00000000       0.00000000          1
H         1.11003690       5.65160314      10.97988853         0.00000000       0.00000000       0.00000000          1
H         2.27640778       7.51690869      12.70166338         0.00000000       0.00000000       0.00000000          1
H         2.29848522       7.95744287       9.94308599         0.00000000       0.00000000       0.00000000          1
H         4.67246663       7.33366537      11.27702589         0.00000000       0.00000000       0.00000000          1
H         3.50610333       5.46835871       9.55524509         0.00000000       0.00000000       0.00000000          1
6
pbc=[F, F, F] list_num_par=6 frozen=false iter=20000 energy=-1.26974174 Lattice="15.00000000 0.00000000 0.00000000 0.00000000 15.00000000 0.00000000 0.00000000 0.00000000 15.00000000" energy_frozen_part=0.00000000 Properties=species:S:1:pos:R:3:velocities:R:3:Z:I:1
H         3.48397996       5.02783940      12.31397348         0.00000000       0.00000000       0.00000000          1
H         1.11002093       5.65151717      10.97993797         0.00000000       0.00000000       0.00000000          1
H         2.27630390       7.51691704      12.70165930         0.00000000       0.00000000       0.00000000          1
H         2.29846393       7.95733565       9.94307212         0.00000000       0.00000000       0.00000000          1
H         4.67241946       7.33365655      11.27711024         0.00000000       0.00000000       0.00000000          1
H         3.50613575       5.46826290       9.55537930         0.00000000       0.00000000       0.00000000          1
6
pbc=[F, F, F] list_num_par=6 frozen=false iter=20000 energy=-1.26974174 Lattice="15.00000000 0.00000000 0.00000000 0.00000000 15.00000000 0.00000000 0.00000000 0.00000000 15.00000000" energy_frozen_part=0.00000000 Properties=species:S:1:pos:R:3:velocities:R:3:Z:I:1
H         3.48390747       5.02777864      12.31377754         0.00000000       0.00000000       0.00000000          1
H         1.10993101       5.65157084      10.97982820         0.00000000       0.00000000       0.00000000          1
H         2.27627052       7.51684757      12.70164978         0.00000000       0.00000000       0.00000000          1
H         2.29838144       7.95745064       9.94308760         0.00000000       0.00000000       0.00000000          1
H         4.67234833       7.33364756      11.27703804         0.00000000       0.00000000       0.00000000          1
H         3.50600986       5.46837572       9.55521347         0.00000000       0.00000000       0.00000000          1
6
pbc=[F, F, F] list_num_par=6 frozen=false iter=20000 energy=-1.26974174 Lattice="15.00000000 0.00000000 0.00000000 0.00000000 15.00000000 0.00000000 0.00000000 0.00000000 15.00000000" energy_frozen_part=0.00000000 Properties=species:S:1:pos:R:3:velocities:R:3:Z:I:1
H         3.32346182       5.09857622      12.39492619         0.00000000       0.00000000       0.00000000          1
H         0.94945497       5.83106639      11.11748727         0.00000000       0.00000000       0.00000000          1
H         2.21820502       7.62484740      12.84285556         0.00000000       0.00000000       0.00000000          1
H         2.20380666       8.10645526      10.09110000         0.00000000       0.00000000       0.00000000          1
H         4.57781067       7.37398186      11.36854063         0.00000000       0.00000000       0.00000000          1
H         3.30906735       5.58018516       9.64317960         0.00000000       0.00000000       0.00000000          1
6
pbc=[F, F, F] list_num_par=6 frozen=false iter=20000 energy=-1.26974174 Lattice="15.00000000 0.00000000 0.00000000 0.00000000 15.00000000 0.00000000 0.00000000 0.00000000 15.00000000" energy_frozen_part=0.00000000 Properties=species:S:1:pos:R:3:velocities:R:3:Z:I:1
H         3.48403027       5.02776047      12.31374862         0.00000000       0.00000000       0.00000000          1
H         1.11003204       5.65160446      10.97987529         0.00000000       0.00000000       0.00000000          1
H         2.27644864       7.51684708      12.70167822         0.00000000       0.00000000       0.00000000          1
H         2.29848711       7.95746309       9.94311217         0.00000000       0.00000000       0.00000000          1
H         4.67248348       7.33361758      11.27699252         0.00000000       0.00000000       0.00000000          1
H         3.50606081       5.46836748       9.55519002         0.00000000       0.00000000       0.00000000          1
6
pbc=[F, F, F] list_num_par=6 frozen=false iter=20000 energy=-1.26974174 Lattice="15.00000000 0.00000000 0.00000000 0.00000000 15.00000000 0.00000000 0.00000000 0.00000000 15.00000000" energy_frozen_part=0.00000000 Properties=species:S:1:pos:R:3:velocities:R:3:Z:I:1
H         3.31400614       5.07974199      12.36913497         0.00000000       0.00000000       0.00000000          1
H         0.95089137       5.81567291      11.07361907         0.00000000       0.00000000       0.00000000          1
H         2.17897911       7.58641669      12.85141362         0.00000000       0.00000000       0.00000000          1
H         2.19767198       8.12235173      10.10975279         0.00000000       0.00000000       0.00000000          1
H         4.56078544       7.38642374      11.40527022         0.00000000       0.00000000       0.00000000          1
H         3.33269235       5.61567728       9.62747936         0.00000000       0.00000000       0.00000000          1
6
pbc=[F, F, F] list_num_par=6 frozen=false iter=20000 energy=-1.26974174 Lattice="15.00000000 0.00000000 0.00000000 0.00000000 15.00000000 0.00000000 0.00000000 0.00000000 15.00000000" energy_frozen_part=0.00000000 Properties=species:S:1:pos:R:3:velocities:R:3:Z:I:1
H         3.48390587       5.02776885      12.31377777         0.00000000       0.00000000       0.00000000          1
H         1.10992770       5.65154095      10.97983633         0.00000000       0.00000000       0.00000000          1
H         2.27627206       7.51683917      12.70163799         0.00000000       0.00000000       0.00000000          1
H         2.29836371       7.95740975       9.94306505         0.00000000       0.00000000       0.00000000          1
H         4.67234133       7.33363774      11.27701965         0.00000000       0.00000000       0.00000000          1
H         3.50600756       5.46834365       9.55521454         0.00000000       0.00000000       0.00000000          1
6
pbc=[F, F, F] list_num_par=6 frozen=false iter=20000 energy=-1.26974174 Lattice="15.00000000 0.00000000 0.00000000 0.00000000 15.00000000 0.00000000 0.00000000 0.00000000 15.00000000" energy_frozen_part=0.00000000 Properties=species:S:1:pos:R:3:velocities:R:3:Z:I:1
H         3.48392172       5.02781315      12.31381112         0.00000000       0.00000000       0.00000000          1
H         1.10993739       5.65149527      10.97982928         0.00000000       0.00000000       0.00000000          1
H         2.27621828       7.51685717      12.70160972         0.00000000       0.00000000       0.00000000          1
H         2.29832985       7.95738094       9.94303728         0.00000000       0.00000000       0.00000000          1
H         4.67231355       7.33369169      11.27701407         0.00000000       0.00000000       0.00000000          1
H         3.50603323       5.46832883       9.55523652         0.00000000       0.00000000       0.00000000          1
6
pbc=[F, F, F] list_num_par=6 frozen=false iter=20000 energy=-1.26974174 Lattice="15.00000000 0.00000000 0.00000000 0.00000000 15.00000000 0.00000000 0.00000000 0.00000000 15.00000000" energy_frozen_part=0.00000000 Properties=species:S:1:pos:R:3:velocities:R:3:Z:I:1
H         3.48393190       5.02773038      12.31372152         0.00000000       0.00000000       0.00000000          1
H         1.11000117       5.65165340      10.97977173         0.00000000       0.00000000       0.00000000          1
H         2.27641847       7.51684869      12.70163722         0.00000000       0.00000000       0.00000000          1
H         2.29855665       7.95748515       9.94307538         0.00000000       0.00000000       0.00000000          1
H         4.67249419       7.33355954      11.27702605         0.00000000       0.00000000       0.00000000          1
H         3.50607729       5.46836301       9.55516888         0.00000000       0.00000000       0.00000000          1
6
pbc=[F, F, F] list_num_par=6 frozen=false iter=20000 energy=-1.26974174 Lattice="15.00000000 0.00000000 0.00000000 0.00000000 15.00000000 0.00000000 0.00000000 0.00000000 15.00000000" energy_frozen_part=0.00000000 Properties=species:S:1:pos:R:3:velocities:R:3:Z:I:1
H         3.48394442       5.02771870      12.31378334         0.00000000       0.00000000       0.00000000          1
H         1.10995954       5.65156746      10.97987549         0.00000000       0.00000000       0.00000000          1
H         2.27639633       7.51683040      12.70164731         0.00000000       0.00000000       0.00000000          1
H         2.29845576       7.95739335       9.94308157         0.00000000       0.00000000       0.00000000          1
H         4.67243514       7.33354689      11.27698943         0.00000000       0.00000000       0.00000000          1
H         3.50600061       5.46828245       9.55521962         0.00000000       0.00000000       0.00000000          1
6
pbc=[F, F, F] list_num_par=6 frozen=false iter=20000 energy=-1.26974174 Lattice="15.00000000 0.00000000 0.00000000 0.00000000 15.00000000 0.00000000 0.00000000 0.00000000 15.00000000" energy_frozen_part=0.00000000 Properties=species:S:1:pos:R:3:velocities:R:3:Z:I:1
H         3.31400406       5.07970386      12.36916697         0.00000000       0.00000000       0.00000000          1
H         0.95091156       5.81558290      11.07357317         0.00000000       0.00000000       0.00000000          1
H         2.17892477       7.58635916      12.85139353         0.00000000       0.00000000       0.00000000          1
H         2.19767050       8.12227758      10.10972225         0.00000000       0.00000000       0.00000000          1
H         4.56076062       7.38640122      11.40530837         0.00000000       0.00000000       0.00000000          1
H         3.33275477       5.61561808       9.62749848         0.00000000       0.00000000       0.00000000          1
6
pbc=[F, F, F] list_num_par=6 frozen=false iter=20000 energy=-1.26974174 Lattice="15.00000000 0.00000000 0.00000000 0.00000000 15.00000000 0.00000000 0.00000000 0.00000000 15.00000000" energy_frozen_part=0.00000000 Properties=species:S:1:pos:R:3:velocities:R:3:Z:I:1
H         3.32348018       5.09858626      12.39495203         0.00000000       0.00000000       0.00000000          1
H         0.94948586       5.83106124      11.11748613         0.00000000       0.00000000       0.00000000          1
H         2.21820390       7.62484815      12.84286841         0.00000000       0.00000000       0.00000000          1
H         2.20383789       8.10646229      10.09111532         0.00000000       0.00000000       0.00000000          1
H         4.57782836       7.37397772      11.36857867         0.00000000       0.00000000       0.00000000          1
H         3.30910625       5.58019142       9.64319682         0.00000000       0.00000000       0.00000000          1
6
pbc=[F, F, F] list_num_par=6 frozen=false iter=20000 energy=-1.26974174 Lattice="15.00000000 0.00000000 0.00000000 0.00000000 15.00000000 0.00000000 0.00000000 0.00000000 15.00000000" energy_frozen_part=0.00000000 Properties=species:S:1:pos:R:3:velocities:R:3:Z:I:1
H         3.48394408       5.02771754      12.31378000         0.00000000       0.00000000       0.00000000          1
H         1.10995840       5.65156500      10.97987684         0.00000000       0.00000000       0.00000000          1
H         2.27640025       7.51683118      12.70164703         0.00000000       0.00000000       0.00000000          1
H         2.29846289       7.95739297       9.94308195         0.00000000       0.00000000       0.00000000          1
H         4.67244693       7.33353438      11.27698159         0.00000000       0.00000000       0.00000000          1
H         3.50599957       5.46828267       9.55520728         0.00000000       0.00000000       0.00000000          1
6
pbc=[F, F, F] list_num_par=6 frozen=false iter=20000 energy=-1.26974174 Lattice="15.00000000 0.00000000 0.00000000 0.00000000 15.00000000 0.00000000 0.00000000 0.00000000 15.00000000" energy_frozen_part=0.00000000 Properties=species:S:1:pos:R:3:velocities:R:3:Z:I:1
H         3.31400536       5.07969926      12.36915631         0.00000000       0.00000000       0.00000000          1
H         0.95091852       5.81559057      11.07356716         0.00000000       0.00000000       0.00000000          1