6
pbc=[F, F, F] list_num_par=6 frozen=false iter=9 energy=11.47851251 Lattice="15.00000000 0.00000000 0.00000000 0.00000000 15.00000000 0.00000000 0.00000000 0.00000000 15.00000000" energy_frozen_part=0.00000000 Properties=species:S:1:pos:R:3:velocities:R:3:Z:I:1
H         1.25665312      10.33488917       6.05017637         0.00000000       0.00000000       0.00000000          1
H        10.39484527       4.46495050      12.86748109         0.00000000       0.00000000       0.00000000          1
H         8.26744350       2.51343619      10.34854198         0.00000000       0.00000000       0.00000000          1
H         0.38196050       9.49093115       4.64163891         0.00000000       0.00000000       0.00000000          1
H         7.16215382      13.42325483       9.54858958         0.00000000       0.00000000       0.00000000          1
H         6.85038453       8.84097825       2.10593866         0.00000000       0.00000000       0.00000000          1
6
pbc=[F, F, F] list_num_par=6 frozen=false iter=19 energy=0.37128893 Lattice="15.00000000 0.00000000 0.00000000 0.00000000 15.00000000 0.00000000 0.00000000 0.00000000 15.00000000" energy_frozen_part=0.00000000 Properties=species:S:1:pos:R:3:velocities:R:3:Z:I:1
H         5.46960500      10.64300081       7.89276052         0.00000000       0.00000000       0.00000000          1
H         0.37270268       4.02773437       7.52079153         0.00000000       0.00000000       0.00000000          1
H         5.59441891       8.11509743      10.07344241         0.00000000       0.00000000       0.00000000          1
H        11.79923973      11.81592791      12.12145169         0.00000000       0.00000000       0.00000000          1
H        12.08280159      12.65050575      10.03344742         0.00000000       0.00000000       0.00000000          1
H        12.92723359      10.16535254       9.29827112         0.00000000       0.00000000       0.00000000          1
6
pbc=[F, F, F] list_num_par=6 frozen=false iter=29 energy=-0.00252927 Lattice="15.00000000 0.00000000 0.00000000 0.00000000 15.00000000 0.00000000 0.00000000 0.00000000 15.00000000" energy_frozen_part=0.00000000 Properties=species:S:1:pos:R:3:velocities:R:3:Z:I:1
H         9.37603957       5.10924915       2.02096736         0.00000000       0.00000000       0.00000000          1
H         6.01293037      10.30421426       1.35312442         0.00000000       0.00000000       0.00000000          1
H         5.61343186       0.26203441       6.48458960         0.00000000       0.00000000       0.00000000          1
H         0.44284162       8.13162269       9.22891446         0.00000000       0.00000000       0.00000000          1
H        13.56238185       2.52674950      11.59601568         0.00000000       0.00000000       0.00000000          1
H        13.89187098       9.59161432       9.33647736         0.00000000       0.00000000       0.00000000          1
6
pbc=[F, F, F] list_num_par=6 frozen=false iter=39 energy=-0.00389550 Lattice="15.00000000 0.00000000 0.00000000 0.00000000 15.00000000 0.00000000 0.00000000 0.00000000 15.00000000" energy_frozen_part=0.00000000 Properties=species:S:1:pos:R:3:velocities:R:3:Z:I:1
H         5.68375159       3.85348301      10.08170068         0.00000000       0.00000000       0.00000000          1
H        14.38030615       1.76730347      10.81346995         0.00000000       0.00000000       0.00000000          1
H         7.58314294      13.27991800       1.89529186         0.00000000       0.00000000       0.00000000          1
H        13.53117335      10.18695303       4.02453501         0.00000000       0.00000000       0.00000000          1
H        13.57650741       5.87035641      14.80203039         0.00000000       0.00000000       0.00000000          1
H        11.83224015      14.91323032       9.58350923         0.00000000       0.00000000       0.00000000          1
6
pbc=[F, F, F] list_num_par=6 frozen=false iter=49 energy=-0.00626843 Lattice="15.00000000 0.00000000 0.00000000 0.00000000 15.00000000 0.00000000 0.00000000 0.00000000 15.00000000" energy_frozen_part=0.00000000 Properties=species:S:1:pos:R:3:velocities:R:3:Z:I:1
H         5.45304616       4.32230075       5.87336186         0.00000000       0.00000000       0.00000000          1
H         1.42318026      13.88990875       0.59330547         0.00000000       0.00000000       0.00000000          1
H         3.85333493       4.89604228      10.63185689         0.00000000       0.00000000       0.00000000          1
H        12.28025528       2.99668075      12.04698151         0.00000000       0.00000000       0.00000000          1
H         5.16972185      13.85429995      10.82165336         0.00000000       0.00000000       0.00000000          1
H        14.99894550       7.20494961       6.05056683         0.00000000       0.00000000       0.00000000          1
6
pbc=[F, F, F] list_num_par=6 frozen=false iter=59 energy=-0.00878645 Lattice="15.00000000 0.00000000 0.00000000 0.00000000 15.00000000 0.00000000 0.00000000 0.00000000 15.00000000" energy_frozen_part=0.00000000 Properties=species:S:1:pos:R:3:velocities:R:3:Z:I:1
H         5.57609295      11.67324080       5.42510487         0.00000000       0.00000000       0.00000000          1
H         7.61093058       8.33986935      12.23783314         0.00000000       0.00000000       0.00000000          1
H         3.01545693       1.18925550       7.03198274         0.00000000       0.00000000       0.00000000          1
H        10.46432234       2.97369920      14.77095040         0.00000000       0.00000000       0.00000000          1
H        14.77004349       4.13483685       0.41061468         0.00000000       0.00000000       0.00000000          1
H         8.70345711       7.54152162       6.85505545         0.00000000       0.00000000       0.00000000          1
6
pbc=[F, F, F] list_num_par=6 frozen=false iter=69 energy=-0.01290254 Lattice="15.00000000 0.00000000 0.00000000 0.00000000 15.00000000 0.00000000 0.00000000 0.00000000 15.00000000" energy_frozen_part=0.00000000 Properties=species:S:1:pos:R:3:velocities:R:3:Z:I:1
H        11.29519390      12.93303563      12.87868227         0.00000000       0.00000000       0.00000000          1
H         6.91227786       3.58581436       6.92099467         0.00000000       0.00000000       0.00000000          1
H         2.72902862       6.57194186       4.92034353         0.00000000       0.00000000       0.00000000          1
H         0.48322054       5.49210614      14.24780936         0.00000000       0.00000000       0.00000000          1
H         4.56046162       9.44131175      14.77494357         0.00000000       0.00000000       0.00000000          1
H         3.27646830       1.35896564      13.85008112         0.00000000       0.00000000       0.00000000          1
6
pbc=[F, F, F] list_num_par=6 frozen=false iter=79 energy=-0.01579469 Lattice="15.00000000 0.00000000 0.00000000 0.00000000 15.00000000 0.00000000 0.00000000 0.00000000 15.00000000" energy_frozen_part=0.00000000 Properties=species:S:1:pos:R:3:velocities:R:3:Z:I:1
H         6.41840249      12.86915394      13.76286406         0.00000000       0.00000000       0.00000000          1
H        11.69248224      10.66206322       3.85652668         0.00000000       0.00000000       0.00000000          1
H         6.54062486      13.90006453       1.11024277         0.00000000       0.00000000       0.00000000          1
H         0.16128289      12.49098591       5.98535962         0.00000000       0.00000000       0.00000000          1
H        11.74563974       2.88862158      14.42610804         0.00000000       0.00000000       0.00000000          1
H        12.73440146      14.48426433       5.60335529         0.00000000       0.00000000       0.00000000          1
6
pbc=[F, F, F] list_num_par=6 frozen=false iter=89 energy=-0.02018653 Lattice="15.00000000 0.00000000 0.00000000 0.00000000 15.00000000 0.00000000 0.00000000 0.00000000 15.00000000" energy_frozen_part=0.00000000 Properties=species:S:1:pos:R:3:velocities:R:3:Z:I:1
H        10.86766808       0.21448405       8.01779407         0.00000000       0.00000000       0.00000000          1
H         7.39310320       5.13970035       9.94943537         0.00000000       0.00000000       0.00000000          1
H        12.04383135       5.30442530      11.02399352         0.00000000       0.00000000       0.00000000          1
H        13.30286280       8.30944559      14.48142492         0.00000000       0.00000000       0.00000000          1
H         0.62663517       7.41342375       7.39141505         0.00000000       0.00000000       0.00000000          1
H        14.03834932      13.14214739       0.43795585         0.00000000       0.00000000       0.00000000          1
6
pbc=[F, F, F] list_num_par=6 frozen=false iter=99 energy=-0.02420784 Lattice="15.00000000 0.00000000 0.00000000 0.00000000 15.00000000 0.00000000 0.00000000 0.00000000 15.00000000" energy_frozen_part=0.00000000 Properties=species:S:1:pos:R:3:velocities:R:3:Z:I:1
H         4.89465579       5.83451132       7.02720262         0.00000000       0.00000000       0.00000000          1
H        13.40339034      14.68840469       0.08785030         0.00000000       0.00000000       0.00000000          1
H        10.69939953      10.27991649      14.29537598         0.00000000       0.00000000       0.00000000          1
H        13.19169348      12.60748110       5.07986696         0.00000000       0.00000000       0.00000000          1
H         5.86445889       2.55882566       2.28402855         0.00000000       0.00000000       0.00000000          1
H        10.26897130      10.21860087       6.94085938         0.00000000       0.00000000       0.00000000          1
6
pbc=[F, F, F] list_num_par=6 frozen=false iter=109 energy=-0.02690855 Lattice="15.00000000 0.00000000 0.00000000 0.00000000 15.00000000 0.00000000 0.00000000 0.00000000 15.00000000" energy_frozen_part=0.00000000 Properties=species:S:1:pos:R:3:velocities:R:3:Z:I:1
H         8.08950492       7.58885692      13.26517514         0.00000000       0.00000000       0.00000000          1
H        14.75184078       9.21097247       2.64706705         0.00000000       0.00000000       0.00000000          1
H        12.86601352       9.61930844      12.77150801         0.00000000       0.00000000       0.00000000          1
H        10.12082452       3.26978804       1.47652628         0.00000000       0.00000000       0.00000000          1
H         8.24091110      11.69613926      14.15749032         0.00000000       0.00000000       0.00000000          1
H         0.62621998       7.62567298      12.38905893         0.00000000       0.00000000       0.00000000          1
6
pbc=[F, F, F] list_num_par=6 frozen=false iter=119 energy=-0.02977584 Lattice="15.00000000 0.00000000 0.00000000 0.00000000 15.00000000 0.00000000 0.00000000 0.00000000 15.00000000" energy_frozen_part=0.00000000 Properties=species:S:1:pos:R:3:velocities:R:3:Z:I:1
H         3.94169852       7.98091733      14.98343983         0.00000000       0.00000000       0.00000000          1
H        11.42931231       4.26429457       6.85648630         0.00000000       0.00000000       0.00000000          1
H        11.41492747       1.84588551       1.63474985         0.00000000       0.00000000       0.00000000          1
H        10.28048478       9.81380526       0.05126137         0.00000000       0.00000000       0.00000000          1
H         2.75532501       0.55518689      13.98579496         0.00000000       0.00000000       0.00000000          1
H        12.05479984       7.64925994       3.05230156         0.00000000       0.00000000       0.00000000          1
6
pbc=[F, F, F] list_num_par=6 frozen=false iter=129 energy=-0.03285788 Lattice="15.00000000 0.00000000 0.00000000 0.00000000 15.00000000 0.00000000 0.00000000 0.00000000 15.00000000" energy_frozen_part=0.00000000 Properties=species:S:1:pos:R:3:velocities:R:3:Z:I:1
H         3.93517074       8.02861735      12.65227609         0.00000000       0.00000000       0.00000000          1
H         6.69281068       2.10378821      13.18165139         0.00000000       0.00000000       0.00000000          1
H        14.11771848       8.92360222       0.43866154         0.00000000       0.00000000       0.00000000          1
H         1.68592481       4.82905726      11.58241138         0.00000000       0.00000000       0.00000000          1
H         3.09759106       3.45772052       7.18577487         0.00000000       0.00000000       0.00000000          1
H        10.89117290      13.36983251       7.73913357         0.00000000       0.00000000       0.00000000          1
6
pbc=[F, F, F] list_num_par=6 frozen=false iter=139 energy=-0.03833250 Lattice="15.00000000 0.00000000 0.00000000 0.00000000 15.00000000 0.00000000 0.00000000 0.00000000 15.00000000" energy_frozen_part=0.00000000 Properties=species:S:1:pos:R:3:velocities:R:3:Z:I:1
H         9.89471059       7.03719101       6.20840063         0.00000000       0.00000000       0.00000000          1
H         0.57238225       7.42614946      11.25836519         0.00000000       0.00000000       0.00000000          1
H         2.83669233       0.27960597      10.25350306         0.00000000       0.00000000       0.00000000          1
H         7.44249531      13.07891639      11.74984651         0.00000000       0.00000000       0.00000000          1
H        13.51073725       7.43129844       6.59769207         0.00000000       0.00000000       0.00000000          1
H        12.77804563      14.54807175       5.96911763         0.00000000       0.00000000       0.00000000          1
6
pbc=[F, F, F] list_num_par=6 frozen=false iter=149 energy=-0.04115907 Lattice="15.00000000 0.00000000 0.00000000 0.00000000 15.00000000 0.00000000 0.00000000 0.00000000 15.00000000" energy_frozen_part=0.00000000 Properties=species:S:1:pos:R:3:velocities:R:3:Z:I:1
H         3.80691948      14.12935489      10.43475746         0.00000000       0.00000000       0.00000000          1
H         9.77878819       9.74580739       0.33785395         0.00000000       0.00000000       0.00000000          1
H         8.27663903       1.18641656       1.72333057         0.00000000       0.00000000       0.00000000          1
H         6.12806229       4.22685361       9.50982915         0.00000000       0.00000000       0.00000000          1
H         5.45517032       0.70745901       9.45049727         0.00000000       0.00000000       0.00000000          1
H        14.72045428      14.06452190      12.37590227         0.00000000       0.00000000       0.00000000          1
6
pbc=[F, F, F] list_num_par=6 frozen=false iter=159 energy=-0.04538492 Lattice="15.00000000 0.00000000 0.00000000 0.00000000 15.00000000 0.00000000 0.00000000 0.00000000 15.00000000" energy_frozen_part=0.00000000 Properties=species:S:1:pos:R:3:velocities:R:3:Z:I:1
H         2.23912941      12.56989878      14.75217193         0.00000000       0.00000000       0.00000000          1
H         7.62679803       4.69787907       8.04281174         0.00000000       0.00000000       0.00000000          1
H        13.36599714      14.68528611       8.18885170         0.00000000       0.00000000       0.00000000          1
H        13.05997228       5.48307015       8.79622922         0.00000000       0.00000000       0.00000000          1
H        12.48200717      11.41479346       9.69529316         0.00000000       0.00000000       0.00000000          1
H         5.56787271       9.23718721       9.74915061         0.00000000       0.00000000       0.00000000          1
6
pbc=[F, F, F] list_num_par=6 frozen=false iter=169 energy=-0.04901773 Lattice="15.00000000 0.00000000 0.00000000 0.00000000 15.00000000 0.00000000 0.00000000 0.00000000 15.00000000" energy_frozen_part=0.00000000 Properties=species:S:1:pos:R:3:velocities:R:3:Z:I:1
H        11.13594512       1.35397127      11.06316801         0.00000000       0.00000000       0.00000000          1
H        14.20876218       5.19247316       7.49674664         0.00000000       0.00000000       0.00000000          1
H         7.50914864       2.95610751      13.07183299         0.00000000       0.00000000       0.00000000          1
H        14.09514105       4.01074997      11.74588113         0.00000000       0.00000000       0.00000000          1
H         0.53965266      10.08954389      13.51311855         0.00000000       0.00000000       0.00000000          1
H        10.27434099       8.67384219       0.15304357         0.00000000       0.00000000       0.00000000          1
6
pbc=[F, F, F] list_num_par=6 frozen=false iter=179 energy=-0.05412184 Lattice="15.00000000 0.00000000 0.00000000 0.00000000 15.00000000 0.00000000 0.00000000 0.00000000 15.00000000" energy_frozen_part=0.00000000 Properties=species:S:1:pos:R:3:velocities:R:3:Z:I:1
H         2.04027951       1.35063664       5.92743510         0.00000000       0.00000000       0.00000000          1
H         7.89008200      11.97813559       5.40914711         0.00000000       0.00000000       0.00000000          1
H        13.55242803       1.02638927       5.42901848         0.00000000       0.00000000       0.00000000          1
H         3.99465561       7.70656942       4.47537759         0.00000000       0.00000000       0.00000000          1
H         1.54545769       2.07613636       0.78578609         0.00000000       0.00000000       0.00000000          1
H        10.54930727      14.23359682       5.77540095         0.00000000       0.00000000       0.00000000          1
6
pbc=[F, F, F] list_num_par=6 frozen=false iter=189 energy=-0.06071661 Lattice="15.00000000 0.00000000 0.00000000 0.00000000 15.00000000 0.00000000 0.00000000 0.00000000 15.00000000" energy_frozen_part=0.00000000 Properties=species:S:1:pos:R:3:velocities:R:3:Z:I:1
H         7.49091801       9.01787080      14.84567195         0.00000000       0.00000000       0.00000000          1
H        10.79590893       9.93786131       1.35365605         0.00000000       0.00000000       0.00000000          1
H         5.03111707      13.23579553       7.80969080         0.00000000       0.00000000       0.00000000          1
H         8.11957571       6.02228873      13.02550980         0.00000000       0.00000000       0.00000000          1
H         0.43925210       6.81680710       0.68294843         0.00000000       0.00000000       0.00000000          1
H         7.27289275       9.47664716       9.40548427         0.00000000       0.00000000       0.00000000          1
6
pbc=[F, F, F] list_num_par=6 frozen=false iter=199 energy=-0.06506855 Lattice="15.00000000 0.00000000 0.00000000 0.00000000 15.00000000 0.00000000 0.00000000 0.00000000 15.00000000" energy_frozen_part=0.00000000 Properties=species:S:1:pos:R:3:velocities:R:3:Z:I:1
H        12.01375767      12.37677135       6.53968743         0.00000000       0.00000000       0.00000000          1
H         0.61537333       2.71035331      10.04528872         0.00000000       0.00000000       0.00000000          1
H        11.38585573       3.29109939       4.82026924         0.00000000       0.00000000       0.00000000          1
H         3.56526904       1.71180078      14.55543983         0.00000000       0.00000000       0.00000000          1
H         7.35059623      13.15397106       2.69249193         0.00000000       0.00000000       0.00000000          1
H         9.14639678      10.69374463       7.08991936         0.00000000       0.00000000       0.00000000          1
6
pbc=[F, F, F] list_num_par=6 frozen=false iter=209 energy=-0.06901974 Lattice="15.00000000 0.00000000 0.00000000 0.00000000 15.00000000 0.00000000 0.00000000 0.00000000 15.00000000" energy_frozen_part=0.00000000 Properties=species:S:1:pos:R:3:velocities:R:3:Z:I:1
H         3.67735792      10.91856993       9.55353156         0.00000000       0.00000000       0.00000000          1
H         1.57057323       2.49156363      13.41169536         0.00000000       0.00000000       0.00000000          1
H         0.26801453       4.68926990       4.66546061         0.00000000       0.00000000       0.00000000          1
H        11.82672725       5.48962934      14.80295849         0.00000000       0.00000000       0.00000000          1
H         7.00855183       1.01313372       3.68621907         0.00000000       0.00000000       0.00000000          1
H         8.58047965       2.76567739       1.48967011         0.00000000       0.00000000       0.00000000          1
6
pbc=[F, F, F] list_num_par=6 frozen=false iter=219 energy=-0.07620545 Lattice="15.00000000 0.00000000 0.00000000 0.00000000 15.00000000 0.00000000 0.00000000 0.00000000 15.00000000" energy_frozen_part=0.00000000 Properties=species:S:1:pos:R:3:velocities:R:3:Z:I:1
H         3.79021434      12.81622176       2.07462740         0.00000000       0.00000000       0.00000000          1
H        10.55152540       8.56181087       2.13786142         0.00000000       0.00000000       0.00000000          1
H        12.18922081      10.10151112      10.32533275         0.00000000       0.00000000       0.00000000          1
H         9.56071184       3.89927399       8.57278592         0.00000000       0.00000000       0.00000000          1
H         3.62350589      10.93792996       7.60270460         0.00000000       0.00000000       0.00000000          1
H         9.76245142       4.45446140      11.71193108         0.00000000       0.00000000       0.00000000          1
6
pbc=[F, F, F] list_num_par=6 frozen=false iter=229 energy=-0.08211726 Lattice="15.00000000 0.00000000 0.00000000 0.00000000 15.00000000 0.00000000 0.00000000 0.00000000 15.00000000" energy_frozen_part=0.00000000 Properties=species:S:1:pos:R:3:velocities:R:3:Z:I:1
H        12.09286215       4.02876719       3.66685263         0.00000000       0.00000000       0.00000000          1
H         1.96040999      12.97945375       0.25162641         0.00000000       0.00000000       0.00000000          1
H         4.48045968       4.75005873      12.56631721         0.00000000       0.00000000       0.00000000          1
H         3.43144690      12.57539452       6.65900468         0.00000000       0.00000000       0.00000000          1
H        13.02559341       5.29179595       7.02218546         0.00000000       0.00000000       0.00000000          1
H         7.83870380       4.78542370      13.51249527         0.00000000       0.00000000       0.00000000          1
6
pbc=[F, F, F] list_num_par=6 frozen=false iter=239 energy=-0.08520510 Lattice="15.00000000 0.00000000 0.00000000 0.00000000 15.00000000 0.00000000 0.00000000 0.00000000 15.00000000" energy_frozen_part=0.00000000 Properties=species:S:1:pos:R:3:velocities:R:3:Z:I:1
H        13.77495288      12.04825578      12.10487453         0.00000000       0.00000000       0.00000000          1
H        10.45130088       3.67665107      11.69922039         0.00000000       0.00000000       0.00000000          1
H         1.31365963       7.27312864       6.60640148         0.00000000       0.00000000       0.00000000          1
H         7.94957173       4.18885797      12.39117680         0.00000000       0.00000000       0.00000000          1
H         5.23077122       9.73519537      13.03859667         0.00000000       0.00000000       0.00000000          1
H         2.64327781       0.08863004      14.18002927         0.00000000       0.00000000       0.00000000          1
6
pbc=[F, F, F] list_num_par=6 frozen=false iter=249 energy=-0.08799439 Lattice="15.00000000 0.00000000 0.00000000 0.00000000 15.00000000 0.00000000 0.00000000 0.00000000 15.00000000" energy_frozen_part=0.00000000 Properties=species:S:1:pos:R:3:velocities:R:3:Z:I:1
H         8.16050503       5.47534004      14.09273538         0.00000000       0.00000000       0.00000000          1
H         7.64490176      10.70928516       7.96602944         0.00000000       0.00000000       0.00000000          1
H         2.52254044      14.95284597      14.92274487         0.00000000       0.00000000       0.00000000          1
H         8.25580758       6.29614296       1.10542213         0.00000000       0.00000000       0.00000000          1
H         9.48302888       7.44865495      11.98334186         0.00000000       0.00000000       0.00000000          1
H        10.30763218      12.22646181      12.38662952         0.00000000       0.00000000       0.00000000          1
6
pbc=[F, F, F] list_num_par=6 frozen=false iter=259 energy=-0.09054158 Lattice="15.00000000 0.00000000 0.00000000 0.00000000 15.00000000 0.00000000 0.00000000 0.00000000 15.00000000" energy_frozen_part=0.00000000 Properties=species:S:1:pos:R:3:velocities:R:3:Z:I:1
H         0.47623013       4.61178625      12.56579504         0.00000000       0.00000000       0.00000000          1
H         5.22753150       7.74877328      13.57096308         0.00000000       0.00000000       0.00000000          1
H        14.03797214       4.29993131       3.78784370         0.00000000       0.00000000       0.00000000          1
H         7.11807644       4.50280704       1.74489748         0.00000000       0.00000000       0.00000000          1
H         1.08448370       7.34697480       8.76013188         0.00000000       0.00000000       0.00000000          1
H        14.59419182       1.29436954       4.42997167         0.00000000       0.00000000       0.00000000          1
6
pbc=[F, F, F] list_num_par=6 frozen=false iter=269 energy=-0.09428227 Lattice="15.00000000 0.00000000 0.00000000 0.00000000 15.00000000 0.00000000 0.00000000 0.00000000 15.00000000" energy_frozen_part=0.00000000 Properties=species:S:1:pos:R:3:velocities:R:3:Z:I:1
H        12.96796228       6.77310067       6.60099398         0.00000000       0.00000000       0.00000000          1
H         0.94406583       5.61336242      14.30314161         0.00000000       0.00000000       0.00000000          1
H         7.35999593      11.50590868       5.01622750         0.00000000       0.00000000       0.00000000          1
H         0.62694791       8.49244859      13.71388639         0.00000000       0.00000000       0.00000000          1
H         0.87419417      13.67991497       1.81282836         0.00000000       0.00000000       0.00000000          1
H         7.40961061       2.96011597      10.72291102         0.00000000       0.00000000       0.00000000          1
6
pbc=[F, F, F] list_num_par=6 frozen=false iter=279 energy=-0.09870511 Lattice="15.00000000 0.00000000 0.00000000 0.00000000 15.00000000 0.00000000 0.00000000 0.00000000 15.00000000" energy_frozen_part=0.00000000 Properties=species:S:1:pos:R:3:velocities:R:3:Z:I:1
H         3.23594514       8.62472369      12.84192322         0.00000000       0.00000000       0.00000000          1
H         8.26207934       5.34460751       8.96606474         0.00000000       0.00000000       0.00000000          1
H        14.15242648      12.95138484       0.61463888         0.00000000       0.00000000       0.00000000          1
H         3.25681610       3.80326463       6.73221801         0.00000000       0.00000000       0.00000000          1
H         4.12335989       1.02476169       6.26827183         0.00000000       0.00000000       0.00000000          1
H        12.40459775       4.96930694       2.05276506         0.00000000       0.00000000       0.00000000          1
6
pbc=[F, F, F] list_num_par=6 frozen=false iter=289 energy=-0.10066573 Lattice="15.00000000 0.00000000 0.00000000 0.00000000 15.00000000 0.00000000 0.00000000 0.00000000 15.00000000" energy_frozen_part=0.00000000 Properties=species:S:1:pos:R:3:velocities:R:3:Z:I:1
H         4.52710116       5.92897052      12.48101795         0.00000000       0.00000000       0.00000000          1
H        14.62222273      14.25056864       1.88697713         0.00000000       0.00000000       0.00000000          1
H         6.92363158      12.07363582       4.31921097         0.00000000       0.00000000       0.00000000          1
H         6.74740354       5.01568275      10.96245423         0.00000000       0.00000000       0.00000000          1
H         3.48077495       1.41023650       2.30547306         0.00000000       0.00000000       0.00000000          1
H        12.03933744       9.64238649      10.19521766         0.00000000       0.00000000       0.00000000          1
6
pbc=[F, F, F] list_num_par=6 frozen=false iter=299 energy=-0.10330588 Lattice="15.00000000 0.00000000 0.00000000 0.00000000 15.00000000 0.00000000 0.00000000 0.00000000 15.00000000" energy_frozen_part=0.00000000 Properties=species:S:1:pos:R:3:velocities:R:3:Z:I:1
H         6.26383651       0.81064962      10.45711695         0.00000000       0.00000000       0.00000000          1
H         1.78916910       3.79060399      13.38045160         0.00000000       0.00000000       0.00000000          1
H         0.88875096       0.64526886      13.32260778         0.00000000       0.00000000       0.00000000          1
H        14.54864076       2.26466747       5.86977690         0.00000000       0.00000000       0.00000000          1
H         5.17247760       4.97707523      11.63474120         0.00000000       0.00000000       0.00000000          1
H         5.62805154       0.61598781       1.60862031         0.00000000       0.00000000       0.00000000          1
6
pbc=[F, F, F] list_num_par=6 frozen=false iter=309 energy=-0.10615068 Lattice="15.00000000 0.00000000 0.00000000 0.00000000 15.00000000 0.00000000 0.00000000 0.00000000 15.00000000" energy_frozen_part=0.00000000 Properties=species:S:1:pos:R:3:velocities:R:3:Z:I:1
H        14.13706158       2.17058245       4.71240908         0.00000000       0.00000000       0.00000000          1
H         7.33281213       7.84601069       4.39438500         0.00000000       0.00000000       0.00000000          1