6
pbc=[F, F, F] list_num_par=6 frozen=false iter=20000 energy=-1.26974174 Lattice="15.00000000 0.00000000 0.00000000 0.00000000 15.00000000 0.00000000 0.00000000 0.00000000 15.00000000" energy_frozen_part=0.00000000 Properties=species:S:1:pos:R:3:velocities:R:3:Z:I:1
H        10.52976163      10.89696886       8.71208331         0.00000000       0.00000000       0.00000000          1
H        11.38027738       8.28814895       9.23647618         0.00000000       0.00000000       0.00000000          1
H         8.08372354      10.34725656       9.94455014         0.00000000       0.00000000       0.00000000          1
H         8.99112382       8.72771521       7.85697803         0.00000000       0.00000000       0.00000000          1
H         8.93423075       7.73843834      10.46894903         0.00000000       0.00000000       0.00000000          1
H        10.47287370       9.90768888      11.32405244         0.00000000       0.00000000       0.00000000          1
6
pbc=[F, F, F] list_num_par=6 frozen=false iter=20000 energy=-1.26974174 Lattice="15.00000000 0.00000000 0.00000000 0.00000000 15.00000000 0.00000000 0.00000000 0.00000000 15.00000000" energy_frozen_part=0.00000000 Properties=species:S:1:pos:R:3:velocities:R:3:Z:I:1
H        10.52976298      10.89697933       8.71209342         0.00000000       0.00000000       0.00000000          1
H        11.38028630       8.28817288       9.23649307         0.00000000       0.00000000       0.00000000          1
H         8.08373364      10.34726689       9.94457517         0.00000000       0.00000000       0.00000000          1
H         8.99112601       8.72771198       7.85699680         0.00000000       0.00000000       0.00000000          1
H         8.93425603       7.73845269      10.46897642         0.00000000       0.00000000       0.00000000          1
H        10.47288990       9.90772145      11.32406815         0.00000000       0.00000000       0.00000000          1
6
pbc=[F, F, F] list_num_par=6 frozen=false iter=20000 energy=-1.26974174 Lattice="15.00000000 0.00000000 0.00000000 0.00000000 15.00000000 0.00000000 0.00000000 0.00000000 15.00000000" energy_frozen_part=0.00000000 Properties=species:S:1:pos:R:3:velocities:R:3:Z:I:1
H        10.52974436      10.89698028       8.71209467         0.00000000       0.00000000       0.00000000          1
H        11.38027622       8.28817132       9.23648205         0.00000000       0.00000000       0.00000000          1
H         8.08371926      10.34724945       9.94458195         0.00000000       0.00000000       0.00000000          1
H         8.99111691       8.72770608       7.85700044         0.00000000       0.00000000       0.00000000          1
H         8.93425556       7.73844428      10.46897837         0.00000000       0.00000000       0.00000000          1
H        10.47288480       9.90770883      11.32406886         0.00000000       0.00000000       0.00000000          1
6
pbc=[F, F, F] list_num_par=6 frozen=false iter=20000 energy=-1.26974174 Lattice="15.00000000 0.00000000 0.00000000 0.00000000 15.00000000 0.00000000 0.00000000 0.00000000 15.00000000" energy_frozen_part=0.00000000 Properties=species:S:1:pos:R:3:velocities:R:3:Z:I:1
H        10.52972521      10.89697669       8.71205682         0.00000000       0.00000000       0.00000000          1
H        11.38031023       8.28817731       9.23644048         0.00000000       0.00000000       0.00000000          1
H         8.08372677      10.34721637       9.94456970         0.00000000       0.00000000       0.00000000          1
H         8.99112200       8.72768015       7.85698300         0.00000000       0.00000000       0.00000000          1
H         8.93430445       7.73841794      10.46895683         0.00000000       0.00000000       0.00000000          1
H        10.47290800       9.90770972      11.32402949         0.00000000       0.00000000       0.00000000          1
6
pbc=[F, F, F] list_num_par=6 frozen=false iter=20000 energy=-1.26974174 Lattice="15.00000000 0.00000000 0.00000000 0.00000000 15.00000000 0.00000000 0.00000000 0.00000000 15.00000000" energy_frozen_part=0.00000000 Properties=species:S:1:pos:R:3:velocities:R:3:Z:I:1
H        10.51465045      10.90395982       8.73042024         0.00000000       0.00000000       0.00000000          1
H        11.34009071       8.28397593       9.23896060         0.00000000       0.00000000       0.00000000          1
H         8.06508287      10.37154982       9.96348648         0.00000000       0.00000000       0.00000000          1
H         8.95340681       8.75482266       7.86553350         0.00000000       0.00000000       0.00000000          1
H         8.89052071       7.75156521      10.47202397         0.00000000       0.00000000       0.00000000          1
H        10.45177467       9.90069269      11.33691102         0.00000000       0.00000000       0.00000000          1
6
pbc=[F, F, F] list_num_par=6 frozen=false iter=20000 energy=-1.26974174 Lattice="15.00000000 0.00000000 0.00000000 0.00000000 15.00000000 0.00000000 0.00000000 0.00000000 15.00000000" energy_frozen_part=0.00000000 Properties=species:S:1:pos:R:3:velocities:R:3:Z:I:1
H        10.52994391      10.89698063       8.71226992         0.00000000       0.00000000       0.00000000          1
H        11.38022990       8.28811718       9.23678762         0.00000000       0.00000000       0.00000000          1
H         8.08368920      10.34741223       9.94438023         0.00000000       0.00000000       0.00000000          1
H         8.99130350       8.72780690       7.85694134         0.00000000       0.00000000       0.00000000          1
H         8.93397490       7.73854776      10.46890673         0.00000000       0.00000000       0.00000000          1
H        10.47261738       9.90772003      11.32422627         0.00000000       0.00000000       0.00000000          1
6
pbc=[F, F, F] list_num_par=6 frozen=false iter=20000 energy=-1.26974174 Lattice="15.00000000 0.00000000 0.00000000 0.00000000 15.00000000 0.00000000 0.00000000 0.00000000 15.00000000" energy_frozen_part=0.00000000 Properties=species:S:1:pos:R:3:velocities:R:3:Z:I:1
H        10.52978825      10.89694934       8.71203235         0.00000000       0.00000000       0.00000000          1
H        11.38037026       8.28817882       9.23655926         0.00000000       0.00000000       0.00000000          1
H         8.08376738      10.34724619       9.94454844         0.00000000       0.00000000       0.00000000          1
H         8.99118905       8.72760948       7.85705568         0.00000000       0.00000000       0.00000000          1
H         8.93434664       7.73847779      10.46907542         0.00000000       0.00000000       0.00000000          1
H        10.47294249       9.90780890      11.32405488         0.00000000       0.00000000       0.00000000          1
6
pbc=[F, F, F] list_num_par=6 frozen=false iter=20000 energy=-1.26974174 Lattice="15.00000000 0.00000000 0.00000000 0.00000000 15.00000000 0.00000000 0.00000000 0.00000000 15.00000000" energy_frozen_part=0.00000000 Properties=species:S:1:pos:R:3:velocities:R:3:Z:I:1
H        10.52971633      10.89695805       8.71206780         0.00000000       0.00000000       0.00000000          1
H        11.38025577       8.28815444       9.23646964         0.00000000       0.00000000       0.00000000          1
H         8.08368250      10.34723306       9.94455612         0.00000000       0.00000000       0.00000000          1
H         8.99109281       8.72769457       7.85697652         0.00000000       0.00000000       0.00000000          1
H         8.93422278       7.73842450      10.46894698         0.00000000       0.00000000       0.00000000          1
H        10.47283824       9.90769641      11.32404304         0.00000000       0.00000000       0.00000000          1
6
pbc=[F, F, F] list_num_par=6 frozen=false iter=20000 energy=-1.26974174 Lattice="15.00000000 0.00000000 0.00000000 0.00000000 15.00000000 0.00000000 0.00000000 0.00000000 15.00000000" energy_frozen_part=0.00000000 Properties=species:S:1:pos:R:3:velocities:R:3:Z:I:1
H        10.52972564      10.89694644       8.71204289         0.00000000       0.00000000       0.00000000          1
H        11.38026700       8.28814852       9.23645901         0.00000000       0.00000000       0.00000000          1
H         8.08369992      10.34722967       9.94453218         0.00000000       0.00000000       0.00000000          1
H         8.99109905       8.72766471       7.85696717         0.00000000       0.00000000       0.00000000          1
H         8.93424033       7.73843067      10.46895065         0.00000000       0.00000000       0.00000000          1
H        10.47286808       9.90770532      11.32403018         0.00000000       0.00000000       0.00000000          1
6
pbc=[F, F, F] list_num_par=6 frozen=false iter=20000 energy=-1.26974174 Lattice="15.00000000 0.00000000 0.00000000 0.00000000 15.00000000 0.00000000 0.00000000 0.00000000 15.00000000" energy_frozen_part=0.00000000 Properties=species:S:1:pos:R:3:velocities:R:3:Z:I:1
H        10.52993338      10.89700334       8.71231065         0.00000000       0.00000000       0.00000000          1
H        11.38028641       8.28815664       9.23683650         0.00000000       0.00000000       0.00000000          1
H         8.08367561      10.34736011       9.94437629         0.00000000       0.00000000       0.00000000          1
H         8.99137117       8.72779102       7.85694436         0.00000000       0.00000000       0.00000000          1
H         8.93402998       7.73851380      10.46889723         0.00000000       0.00000000       0.00000000          1
H        10.47258691       9.90771970      11.32426993         0.00000000       0.00000000       0.00000000          1
6
pbc=[F, F, F] list_num_par=6 frozen=false iter=20000 energy=-1.26974174 Lattice="15.00000000 0.00000000 0.00000000 0.00000000 15.00000000 0.00000000 0.00000000 0.00000000 15.00000000" energy_frozen_part=0.00000000 Properties=species:S:1:pos:R:3:velocities:R:3:Z:I:1
H        10.52994035      10.89697955       8.71228090         0.00000000       0.00000000       0.00000000          1
H        11.38023753       8.28811827       9.23680183         0.00000000       0.00000000       0.00000000          1
H         8.08369185      10.34739726       9.94439113         0.00000000       0.00000000       0.00000000          1
H         8.99130866       8.72780408       7.85694555         0.00000000       0.00000000       0.00000000          1
H         8.93398175       7.73853858      10.46890418         0.00000000       0.00000000       0.00000000          1
H        10.47261604       9.90771182      11.32424529         0.00000000       0.00000000       0.00000000          1
6
pbc=[F, F, F] list_num_par=6 frozen=false iter=20000 energy=-1.26974174 Lattice="15.00000000 0.00000000 0.00000000 0.00000000 15.00000000 0.00000000 0.00000000 0.00000000 15.00000000" energy_frozen_part=0.00000000 Properties=species:S:1:pos:R:3:velocities:R:3:Z:I:1
H        10.52993485      10.89699062       8.71228337         0.00000000       0.00000000       0.00000000          1
H        11.38023542       8.28812476       9.23679752         0.00000000       0.00000000       0.00000000          1
H         8.08368192      10.34740091       9.94439086         0.00000000       0.00000000       0.00000000          1
H         8.99130716       8.72781208       7.85695188         0.00000000       0.00000000       0.00000000          1
H         8.93398791       7.73853389      10.46891070         0.00000000       0.00000000       0.00000000          1
H        10.47260911       9.90771339      11.32424491         0.00000000       0.00000000       0.00000000          1
6
pbc=[F, F, F] list_num_par=6 frozen=false iter=20000 energy=-1.26974174 Lattice="15.00000000 0.00000000 0.00000000 0.00000000 15.00000000 0.00000000 0.00000000 0.00000000 15.00000000" energy_frozen_part=0.00000000 Properties=species:S:1:pos:R:3:velocities:R:3:Z:I:1
H        10.51468517      10.90392230       8.73041702         0.00000000       0.00000000       0.00000000          1
H        11.34007507       8.28393333       9.23898180         0.00000000       0.00000000       0.00000000          1
H         8.06513469      10.37158562       9.96352858         0.00000000       0.00000000       0.00000000          1
H         8.95337508       8.75481101       7.86559101         0.00000000       0.00000000       0.00000000          1
H         8.89052376       7.75159397      10.47210062         0.00000000       0.00000000       0.00000000          1
H        10.45183553       9.90070694      11.33692409         0.00000000       0.00000000       0.00000000          1
6
pbc=[F, F, F] list_num_par=6 frozen=false iter=20000 energy=-1.26974174 Lattice="15.00000000 0.00000000 0.00000000 0.00000000 15.00000000 0.00000000 0.00000000 0.00000000 15.00000000" energy_frozen_part=0.00000000 Properties=species:S:1:pos:R:3:velocities:R:3:Z:I:1
H        10.52992856      10.89698445       8.71226197         0.00000000       0.00000000       0.00000000          1
H        11.38023885       8.28812491       9.23677605         0.00000000       0.00000000       0.00000000          1
H         8.08369647      10.34739569       9.94440480         0.00000000       0.00000000       0.00000000          1
H         8.99129496       8.72780286       7.85695389         0.00000000       0.00000000       0.00000000          1
H         8.93400248       7.73853598      10.46892196         0.00000000       0.00000000       0.00000000          1
H        10.47263669       9.90771604      11.32423431         0.00000000       0.00000000       0.00000000          1
6
pbc=[F, F, F] list_num_par=6 frozen=false iter=20000 energy=-1.26974174 Lattice="15.00000000 0.00000000 0.00000000 0.00000000 15.00000000 0.00000000 0.00000000 0.00000000 15.00000000" energy_frozen_part=0.00000000 Properties=species:S:1:pos:R:3:velocities:R:3:Z:I:1
H        10.52975710      10.89696812       8.71208945         0.00000000       0.00000000       0.00000000          1
H        11.38028942       8.28816028       9.23649053         0.00000000       0.00000000       0.00000000          1
H         8.08372383      10.34724475       9.94455978         0.00000000       0.00000000       0.00000000          1
H         8.99113632       8.72770011       7.85699427         0.00000000       0.00000000       0.00000000          1
H         8.93425593       7.73843659      10.46896884         0.00000000       0.00000000       0.00000000          1
H        10.47287681       9.90770790      11.32406832         0.00000000       0.00000000       0.00000000          1
6
pbc=[F, F, F] list_num_par=6 frozen=false iter=20000 energy=-1.26974174 Lattice="15.00000000 0.00000000 0.00000000 0.00000000 15.00000000 0.00000000 0.00000000 0.00000000 15.00000000" energy_frozen_part=0.00000000 Properties=species:S:1:pos:R:3:velocities:R:3:Z:I:1
H        10.51463750      10.90396221       8.73040794         0.00000000       0.00000000       0.00000000          1
H        11.34009106       8.28398628       9.23896646         0.00000000       0.00000000       0.00000000          1
H         8.06507740      10.37155085       9.96348138         0.00000000       0.00000000       0.00000000          1
H         8.95339665       8.75482212       7.86553172         0.00000000       0.00000000       0.00000000          1
H         8.89052694       7.75157225      10.47203089         0.00000000       0.00000000       0.00000000          1
H        10.45176853       9.90070829      11.33690463         0.00000000       0.00000000       0.00000000          1
6
pbc=[F, F, F] list_num_par=6 frozen=false iter=20000 energy=-1.26974174 Lattice="15.00000000 0.00000000 0.00000000 0.00000000 15.00000000 0.00000000 0.00000000 0.00000000 15.00000000" energy_frozen_part=0.00000000 Properties=species:S:1:pos:R:3:velocities:R:3:Z:I:1
H        10.53209864      10.89722371       8.71589389         0.00000000       0.00000000       0.00000000          1
H        11.38061885       8.28786058       9.24079449         0.00000000       0.00000000       0.00000000          1
H         8.08496108      10.34908738       9.94688522         0.00000000       0.00000000       0.00000000          1
H         8.99258536       8.72896069       7.85985031         0.00000000       0.00000000       0.00000000          1
H         8.93348345       7.73972244      10.47179058         0.00000000       0.00000000       0.00000000          1
H        10.47299339       9.90798848      11.32782359         0.00000000       0.00000000       0.00000000          1
6
pbc=[F, F, F] list_num_par=6 frozen=false iter=20000 energy=-1.26974174 Lattice="15.00000000 0.00000000 0.00000000 0.00000000 15.00000000 0.00000000 0.00000000 0.00000000 15.00000000" energy_frozen_part=0.00000000 Properties=species:S:1:pos:R:3:velocities:R:3:Z:I:1
H        10.52974934      10.89696459       8.71207056         0.00000000       0.00000000       0.00000000          1
H        11.38028727       8.28815285       9.23645224         0.00000000       0.00000000       0.00000000          1
H         8.08373455      10.34724840       9.94458703         0.00000000       0.00000000       0.00000000          1
H         8.99111056       8.72769976       7.85699573         0.00000000       0.00000000       0.00000000          1
H         8.93427660       7.73844045      10.46896969         0.00000000       0.00000000       0.00000000          1
H        10.47291463       9.90770631      11.32404130         0.00000000       0.00000000       0.00000000          1
6
pbc=[F, F, F] list_num_par=6 frozen=false iter=20000 energy=-1.26974174 Lattice="15.00000000 0.00000000 0.00000000 0.00000000 15.00000000 0.00000000 0.00000000 0.00000000 15.00000000" energy_frozen_part=0.00000000 Properties=species:S:1:pos:R:3:velocities:R:3:Z:I:1
H        10.51463607      10.90395974       8.73043309         0.00000000       0.00000000       0.00000000          1
H        11.34008265       8.28397264       9.23895723         0.00000000       0.00000000       0.00000000          1
H         8.06508370      10.37154310       9.96351699         0.00000000       0.00000000       0.00000000          1
H         8.95337726       8.75482281       7.86556098         0.00000000       0.00000000       0.00000000          1
H         8.89052865       7.75156276      10.47204859         0.00000000       0.00000000       0.00000000          1
H        10.45178299       9.90069095      11.33692217         0.00000000       0.00000000       0.00000000          1
6
pbc=[F, F, F] list_num_par=6 frozen=false iter=20000 energy=-1.26974174 Lattice="15.00000000 0.00000000 0.00000000 0.00000000 15.00000000 0.00000000 0.00000000 0.00000000 15.00000000" energy_frozen_part=0.00000000 Properties=species:S:1:pos:R:3:velocities:R:3:Z:I:1
H        10.51463479      10.90395841       8.73043016         0.00000000       0.00000000       0.00000000          1
H        11.34006163       8.28397659       9.23898099         0.00000000       0.00000000       0.00000000          1
H         8.06507650      10.37156694       9.96351446         0.00000000       0.00000000       0.00000000          1
H         8.95336850       8.75483091       7.86556028         0.00000000       0.00000000       0.00000000          1
H         8.89049777       7.75158097      10.47205442         0.00000000       0.00000000       0.00000000          1
H        10.45176766       9.90070823      11.33692827         0.00000000       0.00000000       0.00000000          1
6
pbc=[F, F, F] list_num_par=6 frozen=false iter=20000 energy=-1.26974174 Lattice="15.00000000 0.00000000 0.00000000 0.00000000 15.00000000 0.00000000 0.00000000 0.00000000 15.00000000" energy_frozen_part=0.00000000 Properties=species:S:1:pos:R:3:velocities:R:3:Z:I:1
H        10.52995324      10.89699161       8.71228285         0.00000000       0.00000000       0.00000000          1
H        11.38024818       8.28813551       9.23682260         0.00000000       0.00000000       0.00000000          1
H         8.08369185      10.34742752       9.94436898         0.00000000       0.00000000       0.00000000          1
H         8.99133032       8.72782093       7.85694475         0.00000000       0.00000000       0.00000000          1
H         8.93397571       7.73856272      10.46890654         0.00000000       0.00000000       0.00000000          1
H        10.47259972       9.90773270      11.32425061         0.00000000       0.00000000       0.00000000          1
6
pbc=[F, F, F] list_num_par=6 frozen=false iter=20000 energy=-1.26974174 Lattice="15.00000000 0.00000000 0.00000000 0.00000000 15.00000000 0.00000000 0.00000000 0.00000000 15.00000000" energy_frozen_part=0.00000000 Properties=species:S:1:pos:R:3:velocities:R:3:Z:I:1
H        10.51469259      10.90391683       8.73040983         0.00000000       0.00000000       0.00000000          1
H        11.34008070       8.28392272       9.23898113         0.00000000       0.00000000       0.00000000          1
H         8.06513667      10.37158567       9.96352482         0.00000000       0.00000000       0.00000000          1
H         8.95337843       8.75481135       7.86558458         0.00000000       0.00000000       0.00000000          1
H         8.89052342       7.75159360      10.47209886         0.00000000       0.00000000       0.00000000          1
H        10.45184695       9.90069913      11.33691687         0.00000000       0.00000000       0.00000000          1
6
pbc=[F, F, F] list_num_par=6 frozen=false iter=20000 energy=-1.26974174 Lattice="15.00000000 0.00000000 0.00000000 0.00000000 15.00000000 0.00000000 0.00000000 0.00000000 15.00000000" energy_frozen_part=0.00000000 Properties=species:S:1:pos:R:3:velocities:R:3:Z:I:1
H        10.52992739      10.89701990       8.71227687         0.00000000       0.00000000       0.00000000          1
H        11.38024842       8.28816191       9.23677512         0.00000000       0.00000000       0.00000000          1
H         8.08366804      10.34740243       9.94434084         0.00000000       0.00000000       0.00000000          1
H         8.99134106       8.72783756       7.85689456         0.00000000       0.00000000       0.00000000          1
H         8.93398032       7.73854283      10.46884174         0.00000000       0.00000000       0.00000000          1
H        10.47257300       9.90771655      11.32422267         0.00000000       0.00000000       0.00000000          1
6
pbc=[F, F, F] list_num_par=6 frozen=false iter=20000 energy=-1.26974174 Lattice="15.00000000 0.00000000 0.00000000 0.00000000 15.00000000 0.00000000 0.00000000 0.00000000 15.00000000" energy_frozen_part=0.00000000 Properties=species:S:1:pos:R:3:velocities:R:3:Z:I:1
H        10.52971829      10.89697404       8.71205814         0.00000000       0.00000000       0.00000000          1
H        11.38029636       8.28817696       9.23645385         0.00000000       0.00000000       0.00000000          1
H         8.08370164      10.34721050       9.94455517         0.00000000       0.00000000       0.00000000          1
H         8.99111976       8.72768495       7.85697454         0.00000000       0.00000000       0.00000000          1
H         8.93427898       7.73840869      10.46894934         0.00000000       0.00000000       0.00000000          1
H        10.47287229       9.90771009      11.32403272         0.00000000       0.00000000       0.00000000          1
6
pbc=[F, F, F] list_num_par=6 frozen=false iter=20000 energy=-1.26974174 Lattice="15.00000000 0.00000000 0.00000000 0.00000000 15.00000000 0.00000000 0.00000000 0.00000000 15.00000000" energy_frozen_part=0.00000000 Properties=species:S:1:pos:R:3:velocities:R:3:Z:I:1
H        10.52975804      10.89694936       8.71207117         0.00000000       0.00000000       0.00000000          1
H        11.38027249       8.28813910       9.23649417         0.00000000       0.00000000       0.00000000          1
H         8.08371734      10.34726209       9.94455268         0.00000000       0.00000000       0.00000000          1
H         8.99111405       8.72769188       7.85699293         0.00000000       0.00000000       0.00000000          1
H         8.93422835       7.73844458      10.46897286         0.00000000       0.00000000       0.00000000          1
H        10.47287631       9.90770968      11.32404846         0.00000000       0.00000000       0.00000000          1
6
pbc=[F, F, F] list_num_par=6 frozen=false iter=20000 energy=-1.26974174 Lattice="15.00000000 0.00000000 0.00000000 0.00000000 15.00000000 0.00000000 0.00000000 0.00000000 15.00000000" energy_frozen_part=0.00000000 Properties=species:S:1:pos:R:3:velocities:R:3:Z:I:1
H        10.52976606      10.89698670       8.71210255         0.00000000       0.00000000       0.00000000          1
H        11.38028626       8.28817281       9.23647874         0.00000000       0.00000000       0.00000000          1
H         8.08372755      10.34725229       9.94455888         0.00000000       0.00000000       0.00000000          1
H         8.99114226       8.72772591       7.85697424         0.00000000       0.00000000       0.00000000          1
H         8.93424757       7.73843268      10.46894077         0.00000000       0.00000000       0.00000000          1
H        10.47287529       9.90769346      11.32406693         0.00000000       0.00000000       0.00000000          1
6
pbc=[F, F, F] list_num_par=6 frozen=false iter=20000 energy=-1.26974174 Lattice="15.00000000 0.00000000 0.00000000 0.00000000 15.00000000 0.00000000 0.00000000 0.00000000 15.00000000" energy_frozen_part=0.00000000 Properties=species:S:1:pos:R:3:velocities:R:3:Z:I:1
H        10.52978524      10.89692414       8.71201478         0.00000000       0.00000000       0.00000000          1
H        11.38035071       8.28815571       9.23657156         0.00000000       0.00000000       0.00000000          1
H         8.08376195      10.34725127       9.94454538         0.00000000       0.00000000       0.00000000          1
H         8.99117686       8.72758943       7.85707147         0.00000000       0.00000000       0.00000000          1
H         8.93432587       7.73848223      10.46910587         0.00000000       0.00000000       0.00000000          1
H        10.47293851       9.90782481      11.32404866         0.00000000       0.00000000       0.00000000          1
6
pbc=[F, F, F] list_num_par=6 frozen=false iter=20000 energy=-1.26974174 Lattice="15.00000000 0.00000000 0.00000000 0.00000000 15.00000000 0.00000000 0.00000000 0.00000000 15.00000000" energy_frozen_part=0.00000000 Properties=species:S:1:pos:R:3:velocities:R:3:Z:I:1
H        10.53077783      10.89853035       8.71302996         0.00000000       0.00000000       0.00000000          1
H        11.37975300       8.28897403       9.23624720         0.00000000       0.00000000       0.00000000          1
H         8.08445021      10.34972708       9.94533480         0.00000000       0.00000000       0.00000000          1
H         8.99082737       8.73057008       7.85701102         0.00000000       0.00000000       0.00000000          1
H         8.93342441       7.74017533      10.46854807         0.00000000       0.00000000       0.00000000          1
H        10.47338084       9.90813546      11.32457244         0.00000000       0.00000000       0.00000000          1
6
pbc=[F, F, F] list_num_par=6 frozen=false iter=20000 energy=-1.26974174 Lattice="15.00000000 0.00000000 0.00000000 0.00000000 15.00000000 0.00000000 0.00000000 0.00000000 15.00000000" energy_frozen_part=0.00000000 Properties=species:S:1:pos:R:3:velocities:R:3:Z:I:1
H        10.52973618      10.89696552       8.71207281         0.00000000       0.00000000       0.00000000          1
H        11.38026627       8.28815867       9.23646403         0.00000000       0.00000000       0.00000000          1
H         8.08370113      10.34724042       9.94455552         0.00000000       0.00000000       0.00000000          1
H         8.99110269       8.72769843       7.85697047         0.00000000       0.00000000       0.00000000          1
H         8.93423573       7.73842853      10.46894796         0.00000000       0.00000000       0.00000000          1
H        10.47285876       9.90769691      11.32404832         0.00000000       0.00000000       0.00000000          1
6
pbc=[F, F, F] list_num_par=6 frozen=false iter=20000 energy=-1.26974174 Lattice="15.00000000 0.00000000 0.00000000 0.00000000 15.00000000 0.00000000 0.00000000 0.00000000 15.00000000" energy_frozen_part=0.00000000 Properties=species:S:1:pos:R:3:velocities:R:3:Z:I:1
H        10.52973810      10.89695911       8.71206679         0.00000000       0.00000000       0.00000000          1
H        11.38027263       8.28815649       9.23648117         0.00000000       0.00000000       0.00000000          1
H         8.08369509      10.34724330       9.94454147         0.00000000       0.00000000       0.00000000          1
H         8.99111651       8.72768996       7.85698183         0.00000000       0.00000000       0.00000000          1
H         8.93423261       7.73844128      10.46895955         0.00000000       0.00000000       0.00000000          1
H        10.47284996       9.90770988      11.32404667         0.00000000       0.00000000       0.00000000          1
6
pbc=[F, F, F] list_num_par=6 frozen=false iter=20000 energy=-1.26974174 Lattice="15.00000000 0.00000000 0.00000000 0.00000000 15.00000000 0.00000000 0.00000000 0.00000000 15.00000000" energy_frozen_part=0.00000000 Properties=species:S:1:pos:R:3:velocities:R:3:Z:I:1
H        10.52993310      10.89697228       8.71228384         0.00000000       0.00000000       0.00000000          1
H        11.38022518       8.28811549       9.23681692         0.00000000       0.00000000       0.00000000          1