6
pbc=[F, F, F] list_num_par=6 frozen=false iter=9 energy=30.30359713 Lattice="15.00000000 0.00000000 0.00000000 0.00000000 15.00000000 0.00000000 0.00000000 0.00000000 15.00000000" energy_frozen_part=0.00000000 Properties=species:S:1:pos:R:3:velocities:R:3:Z:I:1
H         0.68999608      10.89047380      14.70565361         0.00000000       0.00000000       0.00000000          1
H         6.57024663       5.41802102      10.80014424         0.00000000       0.00000000       0.00000000          1
H        14.94544518       8.26368343      12.31574773         0.00000000       0.00000000       0.00000000          1
H        11.63374147       6.31292206       3.31733587         0.00000000       0.00000000       0.00000000          1
H         7.18173772       6.02806975      12.29500230         0.00000000       0.00000000       0.00000000          1
H        11.65158942      11.76121688      14.18092557         0.00000000       0.00000000       0.00000000          1
6
pbc=[F, F, F] list_num_par=6 frozen=false iter=19 energy=0.49646035 Lattice="15.00000000 0.00000000 0.00000000 0.00000000 15.00000000 0.00000000 0.00000000 0.00000000 15.00000000" energy_frozen_part=0.00000000 Properties=species:S:1:pos:R:3:velocities:R:3:Z:I:1
H        10.46252877       9.08344343      11.75017875         0.00000000       0.00000000       0.00000000          1
H        11.26517821       3.64872617      14.15748378         0.00000000       0.00000000       0.00000000          1
H        12.36883883       8.37195116      12.70835953         0.00000000       0.00000000       0.00000000          1
H        11.89641168      11.13344170       8.93760907         0.00000000       0.00000000       0.00000000          1
H        14.21968320       8.69802474       9.75261686         0.00000000       0.00000000       0.00000000          1
H        11.41778671       2.57211005       9.79966277         0.00000000       0.00000000       0.00000000          1
6
pbc=[F, F, F] list_num_par=6 frozen=false iter=29 energy=-0.00364933 Lattice="15.00000000 0.00000000 0.00000000 0.00000000 15.00000000 0.00000000 0.00000000 0.00000000 15.00000000" energy_frozen_part=0.00000000 Properties=species:S:1:pos:R:3:velocities:R:3:Z:I:1
H         4.91866195      10.87331528      10.35586162         0.00000000       0.00000000       0.00000000          1
H        14.64745000      14.78532244       6.59270164         0.00000000       0.00000000       0.00000000          1
H        12.86853748      13.94292141      14.84251741         0.00000000       0.00000000       0.00000000          1
H        10.19424169       3.14996938      14.21753197         0.00000000       0.00000000       0.00000000          1
H         7.97432707      12.06027876       4.95875207         0.00000000       0.00000000       0.00000000          1
H        14.84279729       8.32468138       6.35909945         0.00000000       0.00000000       0.00000000          1
6
pbc=[F, F, F] list_num_par=6 frozen=false iter=39 energy=-0.00633800 Lattice="15.00000000 0.00000000 0.00000000 0.00000000 15.00000000 0.00000000 0.00000000 0.00000000 15.00000000" energy_frozen_part=0.00000000 Properties=species:S:1:pos:R:3:velocities:R:3:Z:I:1
H         2.90889834       5.50351506       7.98897661         0.00000000       0.00000000       0.00000000          1
H         6.96530909       1.33386491       8.30383186         0.00000000       0.00000000       0.00000000          1
H         7.80902550       7.85641776       0.72236618         0.00000000       0.00000000       0.00000000          1
H         9.41877524      12.26242115       5.60702664         0.00000000       0.00000000       0.00000000          1
H        14.10508788      13.11378904       8.61007231         0.00000000       0.00000000       0.00000000          1
H         0.79402920      14.37405481      12.49608116         0.00000000       0.00000000       0.00000000          1
6
pbc=[F, F, F] list_num_par=6 frozen=false iter=49 energy=-0.00912275 Lattice="15.00000000 0.00000000 0.00000000 0.00000000 15.00000000 0.00000000 0.00000000 0.00000000 15.00000000" energy_frozen_part=0.00000000 Properties=species:S:1:pos:R:3:velocities:R:3:Z:I:1
H         4.22766032       6.36741766      12.16780304         0.00000000       0.00000000       0.00000000          1
H        13.70614760       1.12853479      10.88484060         0.00000000       0.00000000       0.00000000          1
H         8.08251149      10.79023091       4.54740318         0.00000000       0.00000000       0.00000000          1
H         3.44905432      14.07271289       9.04076080         0.00000000       0.00000000       0.00000000          1
H         9.90950386       4.21047902       3.16799377         0.00000000       0.00000000       0.00000000          1
H         7.98513116       3.17892006      10.86420216         0.00000000       0.00000000       0.00000000          1
6
pbc=[F, F, F] list_num_par=6 frozen=false iter=59 energy=-0.01401340 Lattice="15.00000000 0.00000000 0.00000000 0.00000000 15.00000000 0.00000000 0.00000000 0.00000000 15.00000000" energy_frozen_part=0.00000000 Properties=species:S:1:pos:R:3:velocities:R:3:Z:I:1
H        10.26950211      10.87307096       9.87159496         0.00000000       0.00000000       0.00000000          1
H         5.46241697      13.07837331       1.31374753         0.00000000       0.00000000       0.00000000          1
H         5.25572300      11.38296183      13.42690966         0.00000000       0.00000000       0.00000000          1
H         8.47659375       1.97917247       9.13978602         0.00000000       0.00000000       0.00000000          1
H         1.64083564       2.90898107      14.81331609         0.00000000       0.00000000       0.00000000          1
H         0.90587962       5.85394493      11.50462637         0.00000000       0.00000000       0.00000000          1
6
pbc=[F, F, F] list_num_par=6 frozen=false iter=69 energy=-0.01807390 Lattice="15.00000000 0.00000000 0.00000000 0.00000000 15.00000000 0.00000000 0.00000000 0.00000000 15.00000000" energy_frozen_part=0.00000000 Properties=species:S:1:pos:R:3:velocities:R:3:Z:I:1
H         5.32091766       0.25541145       8.87127383         0.00000000       0.00000000       0.00000000          1
H        11.37278798       9.51442016       2.91909910         0.00000000       0.00000000       0.00000000          1
H         1.81412754      12.99673136       8.29673925         0.00000000       0.00000000       0.00000000          1
H         0.37332949       3.94358344       7.97083948         0.00000000       0.00000000       0.00000000          1
H         6.40953743       4.50142960       8.43790929         0.00000000       0.00000000       0.00000000          1
H        12.42866269       3.15822291       4.45191427         0.00000000       0.00000000       0.00000000          1
6
pbc=[F, F, F] list_num_par=6 frozen=false iter=79 energy=-0.02186143 Lattice="15.00000000 0.00000000 0.00000000 0.00000000 15.00000000 0.00000000 0.00000000 0.00000000 15.00000000" energy_frozen_part=0.00000000 Properties=species:S:1:pos:R:3:velocities:R:3:Z:I:1
H        13.99102177      13.99382325       8.42422789         0.00000000       0.00000000       0.00000000          1
H         2.61570603       1.67957446       2.63353661         0.00000000       0.00000000       0.00000000          1
H        10.00276341      10.46629084      12.64799851         0.00000000       0.00000000       0.00000000          1
H         5.21071619       4.55084819       3.95000884         0.00000000       0.00000000       0.00000000          1
H        14.93681731       4.99652404       4.21271129         0.00000000       0.00000000       0.00000000          1
H        13.48635641      10.96045870       1.26751655         0.00000000       0.00000000       0.00000000          1
6
pbc=[F, F, F] list_num_par=6 frozen=false iter=89 energy=-0.02856012 Lattice="15.00000000 0.00000000 0.00000000 0.00000000 15.00000000 0.00000000 0.00000000 0.00000000 15.00000000" energy_frozen_part=0.00000000 Properties=species:S:1:pos:R:3:velocities:R:3:Z:I:1
H         6.02738235       0.43491520       4.25750127         0.00000000       0.00000000       0.00000000          1
H         2.77551582       3.31555378       3.74967738         0.00000000       0.00000000       0.00000000          1
H         9.42861908       2.94934369       3.10143803         0.00000000       0.00000000       0.00000000          1
H        12.53713217       2.19542373      10.93551261         0.00000000       0.00000000       0.00000000          1
H        14.77689879       8.55139346       9.66098430         0.00000000       0.00000000       0.00000000          1
H         0.34605528       8.52929620      14.47962647         0.00000000       0.00000000       0.00000000          1
6
pbc=[F, F, F] list_num_par=6 frozen=false iter=99 energy=-0.03635305 Lattice="15.00000000 0.00000000 0.00000000 0.00000000 15.00000000 0.00000000 0.00000000 0.00000000 15.00000000" energy_frozen_part=0.00000000 Properties=species:S:1:pos:R:3:velocities:R:3:Z:I:1
H         2.65966497       7.39939943       7.39647952         0.00000000       0.00000000       0.00000000          1
H         5.26382702      12.82777877       9.68087860         0.00000000       0.00000000       0.00000000          1
H         1.86444745      13.75459232       1.39952448         0.00000000       0.00000000       0.00000000          1
H         5.41298745      11.03413162      13.00300500         0.00000000       0.00000000       0.00000000          1
H        10.91338977       4.12462050      13.94098698         0.00000000       0.00000000       0.00000000          1
H         7.89000975       5.19114329       7.16659538         0.00000000       0.00000000       0.00000000          1
6
pbc=[F, F, F] list_num_par=6 frozen=false iter=109 energy=-0.03873631 Lattice="15.00000000 0.00000000 0.00000000 0.00000000 15.00000000 0.00000000 0.00000000 0.00000000 15.00000000" energy_frozen_part=0.00000000 Properties=species:S:1:pos:R:3:velocities:R:3:Z:I:1
H        10.74391260       9.68915996       6.48280535         0.00000000       0.00000000       0.00000000          1
H        11.60129002       3.32386321       5.28270925         0.00000000       0.00000000       0.00000000          1
H         5.66212932      10.56568834       6.74398031         0.00000000       0.00000000       0.00000000          1
H         5.84390989       1.36989063       0.73347635         0.00000000       0.00000000       0.00000000          1
H        13.34221278      12.85545009       8.35705590         0.00000000       0.00000000       0.00000000          1
H        13.11638692       5.44429817       8.63116428         0.00000000       0.00000000       0.00000000          1
6
pbc=[F, F, F] list_num_par=6 frozen=false iter=119 energy=-0.04331586 Lattice="15.00000000 0.00000000 0.00000000 0.00000000 15.00000000 0.00000000 0.00000000 0.00000000 15.00000000" energy_frozen_part=0.00000000 Properties=species:S:1:pos:R:3:velocities:R:3:Z:I:1
H         9.33190890       9.34240599      10.95748747         0.00000000       0.00000000       0.00000000          1
H         9.01527587      11.64216288      14.37615995         0.00000000       0.00000000       0.00000000          1
H        11.01818797       7.99339372       3.28492738         0.00000000       0.00000000       0.00000000          1
H        13.09488274       9.14620224      13.90776486         0.00000000       0.00000000       0.00000000          1
H        12.13447435       3.36653333       5.01764050         0.00000000       0.00000000       0.00000000          1
H         5.47465086       6.66915421       3.43031098         0.00000000       0.00000000       0.00000000          1
6
pbc=[F, F, F] list_num_par=6 frozen=false iter=129 energy=-0.04825794 Lattice="15.00000000 0.00000000 0.00000000 0.00000000 15.00000000 0.00000000 0.00000000 0.00000000 15.00000000" energy_frozen_part=0.00000000 Properties=species:S:1:pos:R:3:velocities:R:3:Z:I:1
H         6.10501337       1.46708660       0.42339553         0.00000000       0.00000000       0.00000000          1
H        12.85538178       7.99620226       2.81347981         0.00000000       0.00000000       0.00000000          1
H         6.95909607      14.33042737       2.09255926         0.00000000       0.00000000       0.00000000          1
H         6.24282567       8.22818411       5.24052155         0.00000000       0.00000000       0.00000000          1
H        11.86772984       0.52076523       5.97281052         0.00000000       0.00000000       0.00000000          1
H         4.63650831      12.34129031       4.14407838         0.00000000       0.00000000       0.00000000          1
6
pbc=[F, F, F] list_num_par=6 frozen=false iter=139 energy=-0.05351220 Lattice="15.00000000 0.00000000 0.00000000 0.00000000 15.00000000 0.00000000 0.00000000 0.00000000 15.00000000" energy_frozen_part=0.00000000 Properties=species:S:1:pos:R:3:velocities:R:3:Z:I:1
H         6.33268021      12.99410090      13.61144177         0.00000000       0.00000000       0.00000000          1
H         8.12673557      14.29123274       8.42407120         0.00000000       0.00000000       0.00000000          1
H         1.14538261      12.67429939       0.46888076         0.00000000       0.00000000       0.00000000          1
H         7.40716026       5.49947492      13.64686455         0.00000000       0.00000000       0.00000000          1
H         9.70752559      12.84474455       7.01767048         0.00000000       0.00000000       0.00000000          1
H         4.70222658       0.19608764      14.44395227         0.00000000       0.00000000       0.00000000          1
6
pbc=[F, F, F] list_num_par=6 frozen=false iter=149 energy=-0.06057601 Lattice="15.00000000 0.00000000 0.00000000 0.00000000 15.00000000 0.00000000 0.00000000 0.00000000 15.00000000" energy_frozen_part=0.00000000 Properties=species:S:1:pos:R:3:velocities:R:3:Z:I:1
H        12.16530077      10.57257378       6.74292639         0.00000000       0.00000000       0.00000000          1
H         5.71439455      12.93603522      14.85758019         0.00000000       0.00000000       0.00000000          1
H        14.16569257       1.50921549       4.64341686         0.00000000       0.00000000       0.00000000          1
H         0.16259570      11.57607173       4.09594343         0.00000000       0.00000000       0.00000000          1
H         1.09014054       8.91232485       5.84059809         0.00000000       0.00000000       0.00000000          1
H         1.90056674       4.77628254      11.48902974         0.00000000       0.00000000       0.00000000          1
6
pbc=[F, F, F] list_num_par=6 frozen=false iter=159 energy=-0.06487489 Lattice="15.00000000 0.00000000 0.00000000 0.00000000 15.00000000 0.00000000 0.00000000 0.00000000 15.00000000" energy_frozen_part=0.00000000 Properties=species:S:1:pos:R:3:velocities:R:3:Z:I:1
H        14.46756500      14.18570668       6.68898482         0.00000000       0.00000000       0.00000000          1
H         3.72539037       1.57474812       5.15484141         0.00000000       0.00000000       0.00000000          1
H         5.35304948       4.46580232      12.82471213         0.00000000       0.00000000       0.00000000          1
H         1.24052761       4.74243091       4.90888967         0.00000000       0.00000000       0.00000000          1
H         3.07851622       8.42445576      12.35982184         0.00000000       0.00000000       0.00000000          1
H         8.20849183       6.10011056      14.65610370         0.00000000       0.00000000       0.00000000          1
6
pbc=[F, F, F] list_num_par=6 frozen=false iter=169 energy=-0.06859224 Lattice="15.00000000 0.00000000 0.00000000 0.00000000 15.00000000 0.00000000 0.00000000 0.00000000 15.00000000" energy_frozen_part=0.00000000 Properties=species:S:1:pos:R:3:velocities:R:3:Z:I:1
H         6.79144643       2.51305011       4.84736514         0.00000000       0.00000000       0.00000000          1
H        13.73151969       8.23083039      12.49787533         0.00000000       0.00000000       0.00000000          1
H        13.66171213       6.07311118       3.04890587         0.00000000       0.00000000       0.00000000          1
H        11.77893705      10.84374807      13.40872489         0.00000000       0.00000000       0.00000000          1
H         8.10097735       6.58020354       7.86958017         0.00000000       0.00000000       0.00000000          1
H         9.59559337       1.93678240       0.82236187         0.00000000       0.00000000       0.00000000          1
6
pbc=[F, F, F] list_num_par=6 frozen=false iter=179 energy=-0.07539426 Lattice="15.00000000 0.00000000 0.00000000 0.00000000 15.00000000 0.00000000 0.00000000 0.00000000 15.00000000" energy_frozen_part=0.00000000 Properties=species:S:1:pos:R:3:velocities:R:3:Z:I:1
H         0.82332921       9.32277886      11.62565671         0.00000000       0.00000000       0.00000000          1
H         5.30011174       3.42415804       8.06343803         0.00000000       0.00000000       0.00000000          1
H        13.55556175       7.48981534       9.87554939         0.00000000       0.00000000       0.00000000          1
H        10.48387347       8.47316839       9.81294601         0.00000000       0.00000000       0.00000000          1
H         8.50259084      11.34332158       1.85363457         0.00000000       0.00000000       0.00000000          1
H         5.75074908      11.25343984       9.44930998         0.00000000       0.00000000       0.00000000          1
6
pbc=[F, F, F] list_num_par=6 frozen=false iter=189 energy=-0.08193452 Lattice="15.00000000 0.00000000 0.00000000 0.00000000 15.00000000 0.00000000 0.00000000 0.00000000 15.00000000" energy_frozen_part=0.00000000 Properties=species:S:1:pos:R:3:velocities:R:3:Z:I:1
H        10.97848299       7.73860370       0.29508763         0.00000000       0.00000000       0.00000000          1
H        13.97288063       8.91217303      14.12990633         0.00000000       0.00000000       0.00000000          1
H         2.74440796      10.10979136       1.21232256         0.00000000       0.00000000       0.00000000          1
H         7.13050651       8.84681052       2.79495475         0.00000000       0.00000000       0.00000000          1
H        12.49130538       0.37149889       5.68101149         0.00000000       0.00000000       0.00000000          1
H         9.23406551       6.37815809       3.96138324         0.00000000       0.00000000       0.00000000          1
6
pbc=[F, F, F] list_num_par=6 frozen=false iter=199 energy=-0.08847151 Lattice="15.00000000 0.00000000 0.00000000 0.00000000 15.00000000 0.00000000 0.00000000 0.00000000 15.00000000" energy_frozen_part=0.00000000 Properties=species:S:1:pos:R:3:velocities:R:3:Z:I:1
H         9.79149134       8.01124111       3.26519017         0.00000000       0.00000000       0.00000000          1
H        14.96245745       6.19665598       3.01012228         0.00000000       0.00000000       0.00000000          1
H         2.72567492      14.89469547       5.87663078         0.00000000       0.00000000       0.00000000          1
H         7.91857268      14.31713321       9.10788999         0.00000000       0.00000000       0.00000000          1
H        10.95379705      10.49404451       1.75770059         0.00000000       0.00000000       0.00000000          1
H         3.70715742      10.47060623      10.07142852         0.00000000       0.00000000       0.00000000          1
6
pbc=[F, F, F] list_num_par=6 frozen=false iter=209 energy=-0.09387217 Lattice="15.00000000 0.00000000 0.00000000 0.00000000 15.00000000 0.00000000 0.00000000 0.00000000 15.00000000" energy_frozen_part=0.00000000 Properties=species:S:1:pos:R:3:velocities:R:3:Z:I:1
H         2.78624846      14.71232863       8.90358074         0.00000000       0.00000000       0.00000000          1
H         9.33063705       7.50546152      11.75067041         0.00000000       0.00000000       0.00000000          1
H        13.42549927       7.00513240       6.65805772         0.00000000       0.00000000       0.00000000          1
H         2.78487939       8.85902871      11.60977499         0.00000000       0.00000000       0.00000000          1
H         0.09833432       6.12096848      12.55430035         0.00000000       0.00000000       0.00000000          1
H        10.63017934      10.17759713      10.36836859         0.00000000       0.00000000       0.00000000          1
6
pbc=[F, F, F] list_num_par=6 frozen=false iter=219 energy=-0.09650650 Lattice="15.00000000 0.00000000 0.00000000 0.00000000 15.00000000 0.00000000 0.00000000 0.00000000 15.00000000" energy_frozen_part=0.00000000 Properties=species:S:1:pos:R:3:velocities:R:3:Z:I:1
H         0.10099004       7.58869938       1.37331752         0.00000000       0.00000000       0.00000000          1
H         7.27964609       7.35633392      11.40682480         0.00000000       0.00000000       0.00000000          1
H         9.35267405       5.55746460       2.60203721         0.00000000       0.00000000       0.00000000          1
H        10.78897295       7.44478499      12.53147989         0.00000000       0.00000000       0.00000000          1
H        10.71136258      11.11163643       0.98021443         0.00000000       0.00000000       0.00000000          1
H         8.69768578       9.97375859       9.57632288         0.00000000       0.00000000       0.00000000          1
6
pbc=[F, F, F] list_num_par=6 frozen=false iter=229 energy=-0.09855243 Lattice="15.00000000 0.00000000 0.00000000 0.00000000 15.00000000 0.00000000 0.00000000 0.00000000 15.00000000" energy_frozen_part=0.00000000 Properties=species:S:1:pos:R:3:velocities:R:3:Z:I:1
H         5.72974323       5.00151129       1.46820322         0.00000000       0.00000000       0.00000000          1
H        14.99503426      13.40238940       0.44464115         0.00000000       0.00000000       0.00000000          1
H         2.12209376       8.76462855       0.67601981         0.00000000       0.00000000       0.00000000          1
H         7.39106042       3.03507976      11.76783571         0.00000000       0.00000000       0.00000000          1
H         7.86876734       0.61323072      12.80195730         0.00000000       0.00000000       0.00000000          1
H         2.28893711      11.62078357       5.00498546         0.00000000       0.00000000       0.00000000          1
6
pbc=[F, F, F] list_num_par=6 frozen=false iter=239 energy=-0.10001573 Lattice="15.00000000 0.00000000 0.00000000 0.00000000 15.00000000 0.00000000 0.00000000 0.00000000 15.00000000" energy_frozen_part=0.00000000 Properties=species:S:1:pos:R:3:velocities:R:3:Z:I:1
H        10.80476488       1.54293689       3.68941851         0.00000000       0.00000000       0.00000000          1
H         2.94323497      12.52921998       2.09814424         0.00000000       0.00000000       0.00000000          1
H         1.96314024       4.75978380       8.56502076         0.00000000       0.00000000       0.00000000          1
H         7.62376485       8.12923877       0.82644750         0.00000000       0.00000000       0.00000000          1
H         0.60559756      13.08876881      13.08922674         0.00000000       0.00000000       0.00000000          1
H         0.47084286       5.33186998       6.18221902         0.00000000       0.00000000       0.00000000          1
6
pbc=[F, F, F] list_num_par=6 frozen=false iter=249 energy=-0.10135155 Lattice="15.00000000 0.00000000 0.00000000 0.00000000 15.00000000 0.00000000 0.00000000 0.00000000 15.00000000" energy_frozen_part=0.00000000 Properties=species:S:1:pos:R:3:velocities:R:3:Z:I:1
H        12.58481587      10.98265832      10.87364109         0.00000000       0.00000000       0.00000000          1
H         9.19769201      10.39962858       3.61813784         0.00000000       0.00000000       0.00000000          1
H         0.59726498      11.03643145       9.89646406         0.00000000       0.00000000       0.00000000          1
H         0.43725253       4.06519944       1.53331415         0.00000000       0.00000000       0.00000000          1
H        10.31659228      12.28762712       1.60726121         0.00000000       0.00000000       0.00000000          1
H         0.29287809       1.10756778       5.04408601         0.00000000       0.00000000       0.00000000          1
6
pbc=[F, F, F] list_num_par=6 frozen=false iter=259 energy=-0.10260898 Lattice="15.00000000 0.00000000 0.00000000 0.00000000 15.00000000 0.00000000 0.00000000 0.00000000 15.00000000" energy_frozen_part=0.00000000 Properties=species:S:1:pos:R:3:velocities:R:3:Z:I:1
H        10.79015156      14.02009269       3.99545233         0.00000000       0.00000000       0.00000000          1
H         9.11327939       3.18387668       1.30853371         0.00000000       0.00000000       0.00000000          1
H         4.81965544      11.98930966       2.75815406         0.00000000       0.00000000       0.00000000          1
H         2.56334795      10.43290067      12.66589160         0.00000000       0.00000000       0.00000000          1
H        14.83749911       1.81763430       2.49098458         0.00000000       0.00000000       0.00000000          1
H        10.78466876      14.97708381       1.41354063         0.00000000       0.00000000       0.00000000          1
6
pbc=[F, F, F] list_num_par=6 frozen=false iter=269 energy=-0.10496795 Lattice="15.00000000 0.00000000 0.00000000 0.00000000 15.00000000 0.00000000 0.00000000 0.00000000 15.00000000" energy_frozen_part=0.00000000 Properties=species:S:1:pos:R:3:velocities:R:3:Z:I:1
H         3.56699858      11.49683035       6.11419843         0.00000000       0.00000000       0.00000000          1
H        10.31163080       6.06345393      10.46684067         0.00000000       0.00000000       0.00000000          1
H        12.51577958       8.88768120       6.85857361         0.00000000       0.00000000       0.00000000          1
H        14.90340955       7.58230878      13.92696500         0.00000000       0.00000000       0.00000000          1
H         2.23626075      13.21802315      10.68752508         0.00000000       0.00000000       0.00000000          1
H        14.07534959       6.28700055       6.85489699         0.00000000       0.00000000       0.00000000          1
6
pbc=[F, F, F] list_num_par=6 frozen=false iter=279 energy=-0.10625410 Lattice="15.00000000 0.00000000 0.00000000 0.00000000 15.00000000 0.00000000 0.00000000 0.00000000 15.00000000" energy_frozen_part=0.00000000 Properties=species:S:1:pos:R:3:velocities:R:3:Z:I:1
H         5.50298092       5.16850076       3.40509715         0.00000000       0.00000000       0.00000000          1
H         9.51273928       8.31578718      13.13597708         0.00000000       0.00000000       0.00000000          1
H         9.47728253       4.49832128       3.23013148         0.00000000       0.00000000       0.00000000          1
H         0.04137442       1.72073682       0.75023872         0.00000000       0.00000000       0.00000000          1
H         6.31139725       2.72824383       1.36327812         0.00000000       0.00000000       0.00000000          1
H         3.93606460       2.31880806      13.60275149         0.00000000       0.00000000       0.00000000          1
6
pbc=[F, F, F] list_num_par=6 frozen=false iter=289 energy=-0.10925228 Lattice="15.00000000 0.00000000 0.00000000 0.00000000 15.00000000 0.00000000 0.00000000 0.00000000 15.00000000" energy_frozen_part=0.00000000 Properties=species:S:1:pos:R:3:velocities:R:3:Z:I:1
H        12.61890505       2.33728046       4.13502924         0.00000000       0.00000000       0.00000000          1
H         3.53592560      12.60430228       2.45160444         0.00000000       0.00000000       0.00000000          1
H         1.49273470       3.83904234       8.74293813         0.00000000       0.00000000       0.00000000          1
H         2.77051168       7.26267321       7.82269495         0.00000000       0.00000000       0.00000000          1
H         0.41188597       8.52599900      12.17925138         0.00000000       0.00000000       0.00000000          1
H         3.91355109      11.68853733       5.55928882         0.00000000       0.00000000       0.00000000          1
6
pbc=[F, F, F] list_num_par=6 frozen=false iter=299 energy=-0.11064759 Lattice="15.00000000 0.00000000 0.00000000 0.00000000 15.00000000 0.00000000 0.00000000 0.00000000 15.00000000" energy_frozen_part=0.00000000 Properties=species:S:1:pos:R:3:velocities:R:3:Z:I:1
H        13.92885565       2.08385862      13.04716443         0.00000000       0.00000000       0.00000000          1
H        14.94432324       4.67220134      12.70651077         0.00000000       0.00000000       0.00000000          1
H         7.57673493      14.28983369       3.97426674         0.00000000       0.00000000       0.00000000          1
H         1.37902159       8.36446536       6.81105771         0.00000000       0.00000000       0.00000000          1
H         0.67769995       2.72328407      14.80971762         0.00000000       0.00000000       0.00000000          1
H         9.42923438       1.31612628      12.18444895         0.00000000       0.00000000       0.00000000          1
6
pbc=[F, F, F] list_num_par=6 frozen=false iter=309 energy=-0.11407920 Lattice="15.00000000 0.00000000 0.00000000 0.00000000 15.00000000 0.00000000 0.00000000 0.00000000 15.00000000" energy_frozen_part=0.00000000 Properties=species:S:1:pos:R:3:velocities:R:3:Z:I:1
H         2.79649800      10.61299212       6.28817972         0.00000000       0.00000000       0.00000000          1
H         5.23055828       4.57860453       1.87308069         0.00000000       0.00000000       0.00000000          1