6
pbc=[F, F, F] list_num_par=6 frozen=false iter=20000 energy=-1.26974174 Lattice="15.00000000 0.00000000 0.00000000 0.00000000 15.00000000 0.00000000 0.00000000 0.00000000 15.00000000" energy_frozen_part=0.00000000 Properties=species:S:1:pos:R:3:velocities:R:3:Z:I:1
H        11.79575007      12.22232933      11.92696135         0.00000000       0.00000000       0.00000000          1
H        12.86833666      14.12374267      10.18383957         0.00000000       0.00000000       0.00000000          1
H        14.56262842      12.57852469      11.77944936         0.00000000       0.00000000       0.00000000          1
H        11.70338967      11.79689717       9.16748186         0.00000000       0.00000000       0.00000000          1
H        13.39768931      10.25168119      10.76308548         0.00000000       0.00000000       0.00000000          1
H        14.47027371      12.15308829       9.01996715         0.00000000       0.00000000       0.00000000          1
6
pbc=[F, F, F] list_num_par=6 frozen=false iter=20000 energy=-1.26974174 Lattice="15.00000000 0.00000000 0.00000000 0.00000000 15.00000000 0.00000000 0.00000000 0.00000000 15.00000000" energy_frozen_part=0.00000000 Properties=species:S:1:pos:R:3:velocities:R:3:Z:I:1
H        11.80993716      12.27407910      11.80566305         0.00000000       0.00000000       0.00000000          1
H        12.92319793      14.06765514       9.97590600         0.00000000       0.00000000       0.00000000          1
H        14.58151849      12.60072300      11.67953435         0.00000000       0.00000000       0.00000000          1
H        11.75360769      11.69679826       9.07292473         0.00000000       0.00000000       0.00000000          1
H        13.41193424      10.22986117      10.77654836         0.00000000       0.00000000       0.00000000          1
H        14.52520224      12.02344122       8.94679738         0.00000000       0.00000000       0.00000000          1
6
pbc=[F, F, F] list_num_par=6 frozen=false iter=20000 energy=-1.26974174 Lattice="15.00000000 0.00000000 0.00000000 0.00000000 15.00000000 0.00000000 0.00000000 0.00000000 15.00000000" energy_frozen_part=0.00000000 Properties=species:S:1:pos:R:3:velocities:R:3:Z:I:1
H        11.79591796      12.22232757      11.92713986         0.00000000       0.00000000       0.00000000          1
H        12.86829428      14.12382506      10.18398682         0.00000000       0.00000000       0.00000000          1
H        14.56277359      12.57867158      11.77945052         0.00000000       0.00000000       0.00000000          1
H        11.70340188      11.79694707       9.16765113         0.00000000       0.00000000       0.00000000          1
H        13.39787901      10.25178458      10.76311936         0.00000000       0.00000000       0.00000000          1
H        14.47026142      12.15327705       9.01995920         0.00000000       0.00000000       0.00000000          1
6
pbc=[F, F, F] list_num_par=6 frozen=false iter=20000 energy=-1.26974174 Lattice="15.00000000 0.00000000 0.00000000 0.00000000 15.00000000 0.00000000 0.00000000 0.00000000 15.00000000" energy_frozen_part=0.00000000 Properties=species:S:1:pos:R:3:velocities:R:3:Z:I:1
H        11.82277127      12.32516294      11.79886509         0.00000000       0.00000000       0.00000000          1
H        12.95805668      14.10865948       9.97278329         0.00000000       0.00000000       0.00000000          1
H        14.59725507      12.63136551      11.68593828         0.00000000       0.00000000       0.00000000          1
H        11.77552985      11.74550702       9.06645508         0.00000000       0.00000000       0.00000000          1
H        13.41472298      10.26820626      10.77961315         0.00000000       0.00000000       0.00000000          1
H        14.55001524      12.05169654       8.95353488         0.00000000       0.00000000       0.00000000          1
6
pbc=[F, F, F] list_num_par=6 frozen=false iter=20000 energy=-1.26974174 Lattice="15.00000000 0.00000000 0.00000000 0.00000000 15.00000000 0.00000000 0.00000000 0.00000000 15.00000000" energy_frozen_part=0.00000000 Properties=species:S:1:pos:R:3:velocities:R:3:Z:I:1
H        11.82277479      12.32523018      11.79889372         0.00000000       0.00000000       0.00000000          1
H        12.95805738      14.10867476       9.97277517         0.00000000       0.00000000       0.00000000          1
H        14.59726877      12.63137142      11.68590642         0.00000000       0.00000000       0.00000000          1
H        11.77546919      11.74553473       9.06649329         0.00000000       0.00000000       0.00000000          1
H        13.41467382      10.26822585      10.77963786         0.00000000       0.00000000       0.00000000          1
H        14.54995539      12.05167373       8.95351049         0.00000000       0.00000000       0.00000000          1
6
pbc=[F, F, F] list_num_par=6 frozen=false iter=20000 energy=-1.26974174 Lattice="15.00000000 0.00000000 0.00000000 0.00000000 15.00000000 0.00000000 0.00000000 0.00000000 15.00000000" energy_frozen_part=0.00000000 Properties=species:S:1:pos:R:3:velocities:R:3:Z:I:1
H        11.79574331      12.22234840      11.92699494         0.00000000       0.00000000       0.00000000          1
H        12.86835503      14.12375339      10.18387681         0.00000000       0.00000000       0.00000000          1
H        14.56263306      12.57854282      11.77949987         0.00000000       0.00000000       0.00000000          1
H        11.70341786      11.79691485       9.16751115         0.00000000       0.00000000       0.00000000          1
H        13.39769623      10.25170107      10.76313270         0.00000000       0.00000000       0.00000000          1
H        14.47029880      12.15310306       9.02000850         0.00000000       0.00000000       0.00000000          1
6
pbc=[F, F, F] list_num_par=6 frozen=false iter=20000 energy=-1.26974174 Lattice="15.00000000 0.00000000 0.00000000 0.00000000 15.00000000 0.00000000 0.00000000 0.00000000 15.00000000" energy_frozen_part=0.00000000 Properties=species:S:1:pos:R:3:velocities:R:3:Z:I:1
H        11.79591774      12.22235690      11.92714428         0.00000000       0.00000000       0.00000000          1
H        12.86830093      14.12383369      10.18396474         0.00000000       0.00000000       0.00000000          1
H        14.56277588      12.57868727      11.77945000         0.00000000       0.00000000       0.00000000          1
H        11.70341124      11.79693793       9.16765662         0.00000000       0.00000000       0.00000000          1
H        13.39787616      10.25179943      10.76315222         0.00000000       0.00000000       0.00000000          1
H        14.47026580      12.15326932       9.01996851         0.00000000       0.00000000       0.00000000          1
6
pbc=[F, F, F] list_num_par=6 frozen=false iter=20000 energy=-1.26974174 Lattice="15.00000000 0.00000000 0.00000000 0.00000000 15.00000000 0.00000000 0.00000000 0.00000000 15.00000000" energy_frozen_part=0.00000000 Properties=species:S:1:pos:R:3:velocities:R:3:Z:I:1
H        11.80997194      12.27409721      11.80569026         0.00000000       0.00000000       0.00000000          1
H        12.92317084      14.06769133       9.97589883         0.00000000       0.00000000       0.00000000          1
H        14.58154827      12.60079353      11.67951648         0.00000000       0.00000000       0.00000000          1
H        11.75361234      11.69680215       9.07295979         0.00000000       0.00000000       0.00000000          1
H        13.41199206      10.22990458      10.77656608         0.00000000       0.00000000       0.00000000          1
H        14.52518922      12.02349091       8.94678343         0.00000000       0.00000000       0.00000000          1
6
pbc=[F, F, F] list_num_par=6 frozen=false iter=20000 energy=-1.26974174 Lattice="15.00000000 0.00000000 0.00000000 0.00000000 15.00000000 0.00000000 0.00000000 0.00000000 15.00000000" energy_frozen_part=0.00000000 Properties=species:S:1:pos:R:3:velocities:R:3:Z:I:1
H        11.80992894      12.27409486      11.80568276         0.00000000       0.00000000       0.00000000          1
H        12.92322197      14.06768481       9.97595777         0.00000000       0.00000000       0.00000000          1
H        14.58152267      12.60070636      11.67956974         0.00000000       0.00000000       0.00000000          1
H        11.75360410      11.69685307       9.07293769         0.00000000       0.00000000       0.00000000          1
H        13.41189976      10.22987300      10.77655371         0.00000000       0.00000000       0.00000000          1
H        14.52519497      12.02345250       8.94682858         0.00000000       0.00000000       0.00000000          1
6
pbc=[F, F, F] list_num_par=6 frozen=false iter=20000 energy=-1.26974174 Lattice="15.00000000 0.00000000 0.00000000 0.00000000 15.00000000 0.00000000 0.00000000 0.00000000 15.00000000" energy_frozen_part=0.00000000 Properties=species:S:1:pos:R:3:velocities:R:3:Z:I:1
H        11.79576560      12.22235106      11.92701087         0.00000000       0.00000000       0.00000000          1
H        12.86837027      14.12375105      10.18388221         0.00000000       0.00000000       0.00000000          1
H        14.56264938      12.57853926      11.77951110         0.00000000       0.00000000       0.00000000          1
H        11.70341851      11.79691102       9.16752344         0.00000000       0.00000000       0.00000000          1
H        13.39769899      10.25169638      10.76314702         0.00000000       0.00000000       0.00000000          1
H        14.47030387      12.15308915       9.02002080         0.00000000       0.00000000       0.00000000          1
6
pbc=[F, F, F] list_num_par=6 frozen=false iter=20000 energy=-1.26974174 Lattice="15.00000000 0.00000000 0.00000000 0.00000000 15.00000000 0.00000000 0.00000000 0.00000000 15.00000000" energy_frozen_part=0.00000000 Properties=species:S:1:pos:R:3:velocities:R:3:Z:I:1
H        11.80997797      12.27404911      11.80573821         0.00000000       0.00000000       0.00000000          1
H        12.92317850      14.06767604       9.97598933         0.00000000       0.00000000       0.00000000          1
H        14.58155558      12.60071934      11.67954996         0.00000000       0.00000000       0.00000000          1
H        11.75359446      11.69682914       9.07299136         0.00000000       0.00000000       0.00000000          1
H        13.41197282      10.22986834      10.77654761         0.00000000       0.00000000       0.00000000          1
H        14.52516821      12.02349360       8.94680384         0.00000000       0.00000000       0.00000000          1
6
pbc=[F, F, F] list_num_par=6 frozen=false iter=20000 energy=-1.26974174 Lattice="15.00000000 0.00000000 0.00000000 0.00000000 15.00000000 0.00000000 0.00000000 0.00000000 15.00000000" energy_frozen_part=0.00000000 Properties=species:S:1:pos:R:3:velocities:R:3:Z:I:1
H        11.79573071      12.22228852      11.92698117         0.00000000       0.00000000       0.00000000          1
H        12.86821488      14.12378877      10.18388423         0.00000000       0.00000000       0.00000000          1
H        14.56260046      12.57860984      11.77943478         0.00000000       0.00000000       0.00000000          1
H        11.70336316      11.79691020       9.16749181         0.00000000       0.00000000       0.00000000          1
H        13.39774718      10.25173871      10.76304106         0.00000000       0.00000000       0.00000000          1
H        14.47022732      12.15323867       9.01994558         0.00000000       0.00000000       0.00000000          1
6
pbc=[F, F, F] list_num_par=6 frozen=false iter=20000 energy=-1.26974174 Lattice="15.00000000 0.00000000 0.00000000 0.00000000 15.00000000 0.00000000 0.00000000 0.00000000 15.00000000" energy_frozen_part=0.00000000 Properties=species:S:1:pos:R:3:velocities:R:3:Z:I:1
H        11.79573008      12.22235256      11.92699245         0.00000000       0.00000000       0.00000000          1
H        12.86824121      14.12382876      10.18388859         0.00000000       0.00000000       0.00000000          1
H        14.56260572      12.57861899      11.77941766         0.00000000       0.00000000       0.00000000          1
H        11.70333341      11.79698387       9.16749968         0.00000000       0.00000000       0.00000000          1
H        13.39769447      10.25176901      10.76302985         0.00000000       0.00000000       0.00000000          1
H        14.47020892      12.15324543       9.01992519         0.00000000       0.00000000       0.00000000          1
6
pbc=[F, F, F] list_num_par=6 frozen=false iter=20000 energy=-1.26974174 Lattice="15.00000000 0.00000000 0.00000000 0.00000000 15.00000000 0.00000000 0.00000000 0.00000000 15.00000000" energy_frozen_part=0.00000000 Properties=species:S:1:pos:R:3:velocities:R:3:Z:I:1
H        11.79574293      12.22232836      11.92700554         0.00000000       0.00000000       0.00000000          1
H        12.86821808      14.12380035      10.18388349         0.00000000       0.00000000       0.00000000          1
H        14.56260561      12.57861423      11.77941577         0.00000000       0.00000000       0.00000000          1
H        11.70333228      11.79693676       9.16751126         0.00000000       0.00000000       0.00000000          1
H        13.39771594      10.25175143      10.76304198         0.00000000       0.00000000       0.00000000          1
H        14.47020230      12.15322833       9.01992716         0.00000000       0.00000000       0.00000000          1
6
pbc=[F, F, F] list_num_par=6 frozen=false iter=20000 energy=-1.26974174 Lattice="15.00000000 0.00000000 0.00000000 0.00000000 15.00000000 0.00000000 0.00000000 0.00000000 15.00000000" energy_frozen_part=0.00000000 Properties=species:S:1:pos:R:3:velocities:R:3:Z:I:1
H        11.79584162      12.22228870      11.92709157         0.00000000       0.00000000       0.00000000          1
H        12.86822789      14.12376600      10.18391924         0.00000000       0.00000000       0.00000000          1
H        14.56269843      12.57862230      11.77940242         0.00000000       0.00000000       0.00000000          1
H        11.70333824      11.79687886       9.16761112         0.00000000       0.00000000       0.00000000          1
H        13.39780761      10.25172900      10.76309561         0.00000000       0.00000000       0.00000000          1
H        14.47019968      12.15321111       9.01992557         0.00000000       0.00000000       0.00000000          1
6
pbc=[F, F, F] list_num_par=6 frozen=false iter=20000 energy=-1.26974174 Lattice="15.00000000 0.00000000 0.00000000 0.00000000 15.00000000 0.00000000 0.00000000 0.00000000 15.00000000" energy_frozen_part=0.00000000 Properties=species:S:1:pos:R:3:velocities:R:3:Z:I:1
H        11.79595508      12.22233178      11.92717838         0.00000000       0.00000000       0.00000000          1
H        12.86829975      14.12383217      10.18400334         0.00000000       0.00000000       0.00000000          1
H        14.56280905      12.57870659      11.77946273         0.00000000       0.00000000       0.00000000          1
H        11.70342684      11.79694034       9.16769061         0.00000000       0.00000000       0.00000000          1
H        13.39793832      10.25180958      10.76314437         0.00000000       0.00000000       0.00000000          1
H        14.47028450      12.15331265       9.01997385         0.00000000       0.00000000       0.00000000          1
6
pbc=[F, F, F] list_num_par=6 frozen=false iter=20000 energy=-1.26974174 Lattice="15.00000000 0.00000000 0.00000000 0.00000000 15.00000000 0.00000000 0.00000000 0.00000000 15.00000000" energy_frozen_part=0.00000000 Properties=species:S:1:pos:R:3:velocities:R:3:Z:I:1
H        11.79575499      12.22233029      11.92698745         0.00000000       0.00000000       0.00000000          1
H        12.86823108      14.12380100      10.18386487         0.00000000       0.00000000       0.00000000          1
H        14.56262322      12.57861322      11.77938895         0.00000000       0.00000000       0.00000000          1
H        11.70332586      11.79695068       9.16749449         0.00000000       0.00000000       0.00000000          1
H        13.39772390      10.25175460      10.76301928         0.00000000       0.00000000       0.00000000          1
H        14.47019909      12.15322647       9.01989973         0.00000000       0.00000000       0.00000000          1
6
pbc=[F, F, F] list_num_par=6 frozen=false iter=20000 energy=-1.26974174 Lattice="15.00000000 0.00000000 0.00000000 0.00000000 15.00000000 0.00000000 0.00000000 0.00000000 15.00000000" energy_frozen_part=0.00000000 Properties=species:S:1:pos:R:3:velocities:R:3:Z:I:1
H        11.82276301      12.32517911      11.79886175         0.00000000       0.00000000       0.00000000          1
H        12.95806608      14.10865944       9.97278310         0.00000000       0.00000000       0.00000000          1
H        14.59725210      12.63135119      11.68593716         0.00000000       0.00000000       0.00000000          1
H        11.77552368      11.74551071       9.06645762         0.00000000       0.00000000       0.00000000          1
H        13.41471045      10.26820971      10.77962337         0.00000000       0.00000000       0.00000000          1
H        14.55000561      12.05168619       8.95353034         0.00000000       0.00000000       0.00000000          1
6
pbc=[F, F, F] list_num_par=6 frozen=false iter=20000 energy=-1.26974174 Lattice="15.00000000 0.00000000 0.00000000 0.00000000 15.00000000 0.00000000 0.00000000 0.00000000 15.00000000" energy_frozen_part=0.00000000 Properties=species:S:1:pos:R:3:velocities:R:3:Z:I:1
H        11.79576215      12.22234650      11.92697886         0.00000000       0.00000000       0.00000000          1
H        12.86836077      14.12375310      10.18386125         0.00000000       0.00000000       0.00000000          1
H        14.56264844      12.57853433      11.77947891         0.00000000       0.00000000       0.00000000          1
H        11.70341840      11.79690347       9.16749018         0.00000000       0.00000000       0.00000000          1
H        13.39770305      10.25169490      10.76311041         0.00000000       0.00000000       0.00000000          1
H        14.47030328      12.15310291       9.01998846         0.00000000       0.00000000       0.00000000          1
6
pbc=[F, F, F] list_num_par=6 frozen=false iter=20000 energy=-1.26974174 Lattice="15.00000000 0.00000000 0.00000000 0.00000000 15.00000000 0.00000000 0.00000000 0.00000000 15.00000000" energy_frozen_part=0.00000000 Properties=species:S:1:pos:R:3:velocities:R:3:Z:I:1
H        11.79591602      12.22234942      11.92715066         0.00000000       0.00000000       0.00000000          1
H        12.86830877      14.12383038      10.18397824         0.00000000       0.00000000       0.00000000          1
H        14.56277353      12.57867549      11.77945617         0.00000000       0.00000000       0.00000000          1
H        11.70340312      11.79695003       9.16766822         0.00000000       0.00000000       0.00000000          1
H        13.39788207      10.25179104      10.76314197         0.00000000       0.00000000       0.00000000          1
H        14.47026167      12.15327254       9.01996919         0.00000000       0.00000000       0.00000000          1
6
pbc=[F, F, F] list_num_par=6 frozen=false iter=20000 energy=-1.26974174 Lattice="15.00000000 0.00000000 0.00000000 0.00000000 15.00000000 0.00000000 0.00000000 0.00000000 15.00000000" energy_frozen_part=0.00000000 Properties=species:S:1:pos:R:3:velocities:R:3:Z:I:1
H        11.79592261      12.22237151      11.92716568         0.00000000       0.00000000       0.00000000          1
H        12.86832127      14.12382446      10.18397528         0.00000000       0.00000000       0.00000000          1
H        14.56278014      12.57869328      11.77948145         0.00000000       0.00000000       0.00000000          1
H        11.70342454      11.79692967       9.16768497         0.00000000       0.00000000       0.00000000          1
H        13.39788532      10.25180056      10.76319736         0.00000000       0.00000000       0.00000000          1
H        14.47028536      12.15324665       9.02000444         0.00000000       0.00000000       0.00000000          1
6
pbc=[F, F, F] list_num_par=6 frozen=false iter=20000 energy=-1.26974174 Lattice="15.00000000 0.00000000 0.00000000 0.00000000 15.00000000 0.00000000 0.00000000 0.00000000 15.00000000" energy_frozen_part=0.00000000 Properties=species:S:1:pos:R:3:velocities:R:3:Z:I:1
H        11.79575595      12.22233298      11.92695847         0.00000000       0.00000000       0.00000000          1
H        12.86834961      14.12374261      10.18383817         0.00000000       0.00000000       0.00000000          1
H        14.56264130      12.57854512      11.77945695         0.00000000       0.00000000       0.00000000          1
H        11.70341976      11.79688939       9.16747582         0.00000000       0.00000000       0.00000000          1
H        13.39771330      10.25169143      10.76310557         0.00000000       0.00000000       0.00000000          1
H        14.47030059      12.15309946       9.01997138         0.00000000       0.00000000       0.00000000          1
6
pbc=[F, F, F] list_num_par=6 frozen=false iter=20000 energy=-1.26974174 Lattice="15.00000000 0.00000000 0.00000000 0.00000000 15.00000000 0.00000000 0.00000000 0.00000000 15.00000000" energy_frozen_part=0.00000000 Properties=species:S:1:pos:R:3:velocities:R:3:Z:I:1
H        11.82278004      12.32521134      11.79890258         0.00000000       0.00000000       0.00000000          1
H        12.95805348      14.10867777       9.97278887         0.00000000       0.00000000       0.00000000          1
H        14.59726928      12.63133614      11.68589878         0.00000000       0.00000000       0.00000000          1
H        11.77544303      11.74555571       9.06649632         0.00000000       0.00000000       0.00000000          1
H        13.41466315      10.26821777      10.77960124         0.00000000       0.00000000       0.00000000          1
H        14.54994132      12.05168729       8.95349525         0.00000000       0.00000000       0.00000000          1
6
pbc=[F, F, F] list_num_par=6 frozen=false iter=20000 energy=-1.26974174 Lattice="15.00000000 0.00000000 0.00000000 0.00000000 15.00000000 0.00000000 0.00000000 0.00000000 15.00000000" energy_frozen_part=0.00000000 Properties=species:S:1:pos:R:3:velocities:R:3:Z:I:1
H        11.79593867      12.22237479      11.92717924         0.00000000       0.00000000       0.00000000          1
H        12.86833441      14.12383929      10.18399449         0.00000000       0.00000000       0.00000000          1
H        14.56279414      12.57868961      11.77948610         0.00000000       0.00000000       0.00000000          1
H        11.70342618      11.79695134       9.16769516         0.00000000       0.00000000       0.00000000          1
H        13.39788215      10.25179981      10.76318675         0.00000000       0.00000000       0.00000000          1
H        14.47028288      12.15327080       9.02000506         0.00000000       0.00000000       0.00000000          1
6
pbc=[F, F, F] list_num_par=6 frozen=false iter=20000 energy=-1.26974174 Lattice="15.00000000 0.00000000 0.00000000 0.00000000 15.00000000 0.00000000 0.00000000 0.00000000 15.00000000" energy_frozen_part=0.00000000 Properties=species:S:1:pos:R:3:velocities:R:3:Z:I:1
H        11.80992167      12.27410247      11.80566585         0.00000000       0.00000000       0.00000000          1
H        12.92321809      14.06767664       9.97592985         0.00000000       0.00000000       0.00000000          1
H        14.58150992      12.60071140      11.67956776         0.00000000       0.00000000       0.00000000          1
H        11.75361803      11.69683042       9.07292589         0.00000000       0.00000000       0.00000000          1
H        13.41190139      10.22986927      10.77656264         0.00000000       0.00000000       0.00000000          1
H        14.52521060      12.02344941       8.94683339         0.00000000       0.00000000       0.00000000          1
6
pbc=[F, F, F] list_num_par=6 frozen=false iter=20000 energy=-1.26974174 Lattice="15.00000000 0.00000000 0.00000000 0.00000000 15.00000000 0.00000000 0.00000000 0.00000000 15.00000000" energy_frozen_part=0.00000000 Properties=species:S:1:pos:R:3:velocities:R:3:Z:I:1
H        11.79592510      12.22232449      11.92714805         0.00000000       0.00000000       0.00000000          1
H        12.86829516      14.12382567      10.18398395         0.00000000       0.00000000       0.00000000          1
H        14.56277343      12.57867681      11.77945101         0.00000000       0.00000000       0.00000000          1
H        11.70340792      11.79693959       9.16765700         0.00000000       0.00000000       0.00000000          1
H        13.39789625      10.25178599      10.76312606         0.00000000       0.00000000       0.00000000          1
H        14.47026143      12.15328369       9.01996552         0.00000000       0.00000000       0.00000000          1
6
pbc=[F, F, F] list_num_par=6 frozen=false iter=20000 energy=-1.26974174 Lattice="15.00000000 0.00000000 0.00000000 0.00000000 15.00000000 0.00000000 0.00000000 0.00000000 15.00000000" energy_frozen_part=0.00000000 Properties=species:S:1:pos:R:3:velocities:R:3:Z:I:1
H        11.80995002      12.27407158      11.80567786         0.00000000       0.00000000       0.00000000          1
H        12.92322627      14.06765252       9.97594117         0.00000000       0.00000000       0.00000000          1
H        14.58153705      12.60067718      11.67954927         0.00000000       0.00000000       0.00000000          1
H        11.75361281      11.69681239       9.07293773         0.00000000       0.00000000       0.00000000          1
H        13.41191539      10.22984396      10.77654575         0.00000000       0.00000000       0.00000000          1
H        14.52519819      12.02342671       8.94680939         0.00000000       0.00000000       0.00000000          1
6
pbc=[F, F, F] list_num_par=6 frozen=false iter=20000 energy=-1.26974174 Lattice="15.00000000 0.00000000 0.00000000 0.00000000 15.00000000 0.00000000 0.00000000 0.00000000 15.00000000" energy_frozen_part=0.00000000 Properties=species:S:1:pos:R:3:velocities:R:3:Z:I:1
H        11.79592654      12.22235121      11.92715123         0.00000000       0.00000000       0.00000000          1
H        12.86830040      14.12383182      10.18397983         0.00000000       0.00000000       0.00000000          1
H        14.56278244      12.57868224      11.77944704         0.00000000       0.00000000       0.00000000          1
H        11.70341149      11.79694555       9.16766236         0.00000000       0.00000000       0.00000000          1
H        13.39788479      10.25179819      10.76313516         0.00000000       0.00000000       0.00000000          1
H        14.47027057      12.15327993       9.01996377         0.00000000       0.00000000       0.00000000          1
6
pbc=[F, F, F] list_num_par=6 frozen=false iter=20000 energy=-1.26974174 Lattice="15.00000000 0.00000000 0.00000000 0.00000000 15.00000000 0.00000000 0.00000000 0.00000000 15.00000000" energy_frozen_part=0.00000000 Properties=species:S:1:pos:R:3:velocities:R:3:Z:I:1
H        11.82276657      12.32517608      11.79885949         0.00000000       0.00000000       0.00000000          1
H        12.95806311      14.10866248       9.97277496         0.00000000       0.00000000       0.00000000          1
H        14.59725386      12.63135266      11.68594216         0.00000000       0.00000000       0.00000000          1
H        11.77552439      11.74551166       9.06645249         0.00000000       0.00000000       0.00000000          1
H        13.41471500      10.26820608      10.77961534         0.00000000       0.00000000       0.00000000          1
H        14.55000988      12.05169121       8.95353687         0.00000000       0.00000000       0.00000000          1
6
pbc=[F, F, F] list_num_par=6 frozen=false iter=20000 energy=-1.26974174 Lattice="15.00000000 0.00000000 0.00000000 0.00000000 15.00000000 0.00000000 0.00000000 0.00000000 15.00000000" energy_frozen_part=0.00000000 Properties=species:S:1:pos:R:3:velocities:R:3:Z:I:1
H        11.79576475      12.22236575      11.92697586         0.00000000       0.00000000       0.00000000          1
H        12.86836427      14.12376712      10.18384354         0.00000000       0.00000000       0.00000000          1
H        14.56264644      12.57854989      11.77945562         0.00000000       0.00000000       0.00000000          1
H        11.70340719      11.79693155       9.16748704         0.00000000       0.00000000       0.00000000          1
H        13.39770109      10.25170900      10.76309326         0.00000000       0.00000000       0.00000000          1
H        14.47029637      12.15311419       9.01996623         0.00000000       0.00000000       0.00000000          1
6
pbc=[F, F, F] list_num_par=6 frozen=false iter=20000 energy=-1.26974174 Lattice="15.00000000 0.00000000 0.00000000 0.00000000 15.00000000 0.00000000 0.00000000 0.00000000 15.00000000" energy_frozen_part=0.00000000 Properties=species:S:1:pos:R:3:velocities:R:3:Z:I:1
H        11.80999562      12.27410057      11.80569765         0.00000000       0.00000000       0.00000000          1
H        12.92319056      14.06768419       9.97591320         0.00000000       0.00000000       0.00000000          1