6
pbc=[F, F, F] list_num_par=6 frozen=false iter=20000 energy=-1.26974174 Lattice="15.00000000 0.00000000 0.00000000 0.00000000 15.00000000 0.00000000 0.00000000 0.00000000 15.00000000" energy_frozen_part=0.00000000 Properties=species:S:1:pos:R:3:velocities:R:3:Z:I:1
H         3.93204522      10.94651888      13.34074983         0.00000000       0.00000000       0.00000000          1
H         4.00753879      11.21845702      10.56142267         0.00000000       0.00000000       0.00000000          1
H         6.00926490       9.78301982      11.87933701         0.00000000       0.00000000       0.00000000          1
H         4.14172087       8.44097656      10.29330945         0.00000000       0.00000000       0.00000000          1
H         4.06622754       8.16904055      13.07262977         0.00000000       0.00000000       0.00000000          1
H         2.06450547       9.60447457      11.75472330         0.00000000       0.00000000       0.00000000          1
6
pbc=[F, F, F] list_num_par=6 frozen=false iter=20000 energy=-1.26974174 Lattice="15.00000000 0.00000000 0.00000000 0.00000000 15.00000000 0.00000000 0.00000000 0.00000000 15.00000000" energy_frozen_part=0.00000000 Properties=species:S:1:pos:R:3:velocities:R:3:Z:I:1
H         3.93202834      10.94649134      13.34076568         0.00000000       0.00000000       0.00000000          1
H         4.00755433      11.21847804      10.56144590         0.00000000       0.00000000       0.00000000          1
H         6.00925289       9.78300071      11.87935112         0.00000000       0.00000000       0.00000000          1
H         4.14170381       8.44100102      10.29328484         0.00000000       0.00000000       0.00000000          1
H         4.06619026       8.16901730      13.07259616         0.00000000       0.00000000       0.00000000          1
H         2.06448492       9.60449930      11.75469237         0.00000000       0.00000000       0.00000000          1
6
pbc=[F, F, F] list_num_par=6 frozen=false iter=20000 energy=-1.26974174 Lattice="15.00000000 0.00000000 0.00000000 0.00000000 15.00000000 0.00000000 0.00000000 0.00000000 15.00000000" energy_frozen_part=0.00000000 Properties=species:S:1:pos:R:3:velocities:R:3:Z:I:1
H         3.93173646      10.94588090      13.34097046         0.00000000       0.00000000       0.00000000          1
H         4.00809569      11.21862249      10.56174932         0.00000000       0.00000000       0.00000000          1
H         6.00906956       9.78227812      11.87980788         0.00000000       0.00000000       0.00000000          1
H         4.14163556       8.44119046      10.29284588         0.00000000       0.00000000       0.00000000          1
H         4.06528144       8.16844487      13.07206766         0.00000000       0.00000000       0.00000000          1
H         2.06430563       9.60479025      11.75401020         0.00000000       0.00000000       0.00000000          1
6
pbc=[F, F, F] list_num_par=6 frozen=false iter=20000 energy=-1.26974174 Lattice="15.00000000 0.00000000 0.00000000 0.00000000 15.00000000 0.00000000 0.00000000 0.00000000 15.00000000" energy_frozen_part=0.00000000 Properties=species:S:1:pos:R:3:velocities:R:3:Z:I:1
H         3.25386531       8.79788616      12.52291708         0.00000000       0.00000000       0.00000000          1
H         4.08295555      10.74903247      14.34223922         0.00000000       0.00000000       0.00000000          1
H         5.83478857       9.85435996      12.35857961         0.00000000       0.00000000       0.00000000          1
H         3.94123365      10.48247858      10.40302268         0.00000000       0.00000000       0.00000000          1
H         2.18939758      11.37715421      12.38669113         0.00000000       0.00000000       0.00000000          1
H         4.77032015      12.43362500      12.22234255         0.00000000       0.00000000       0.00000000          1
6
pbc=[F, F, F] list_num_par=6 frozen=false iter=20000 energy=-1.26974174 Lattice="15.00000000 0.00000000 0.00000000 0.00000000 15.00000000 0.00000000 0.00000000 0.00000000 15.00000000" energy_frozen_part=0.00000000 Properties=species:S:1:pos:R:3:velocities:R:3:Z:I:1
H         3.93213540      10.94650001      13.34074810         0.00000000       0.00000000       0.00000000          1
H         4.00756894      11.21844731      10.56142798         0.00000000       0.00000000       0.00000000          1
H         6.00928640       9.78294876      11.87928359         0.00000000       0.00000000       0.00000000          1
H         4.14166045       8.44096877      10.29329736         0.00000000       0.00000000       0.00000000          1
H         4.06622951       8.16901576      13.07261454         0.00000000       0.00000000       0.00000000          1
H         2.06451258       9.60452290      11.75476712         0.00000000       0.00000000       0.00000000          1
6
pbc=[F, F, F] list_num_par=6 frozen=false iter=20000 energy=-1.26974174 Lattice="15.00000000 0.00000000 0.00000000 0.00000000 15.00000000 0.00000000 0.00000000 0.00000000 15.00000000" energy_frozen_part=0.00000000 Properties=species:S:1:pos:R:3:velocities:R:3:Z:I:1
H         3.93243261      10.94762430      13.34037760         0.00000000       0.00000000       0.00000000          1
H         4.00781190      11.21867131      10.56096357         0.00000000       0.00000000       0.00000000          1
H         6.00952460       9.78355796      11.87923952         0.00000000       0.00000000       0.00000000          1
H         4.14184444       8.44109795      10.29372381         0.00000000       0.00000000       0.00000000          1
H         4.06647077       8.17005256      13.07313844         0.00000000       0.00000000       0.00000000          1
H         2.06475378       9.60516735      11.75485637         0.00000000       0.00000000       0.00000000          1
6
pbc=[F, F, F] list_num_par=6 frozen=false iter=20000 energy=-1.26974174 Lattice="15.00000000 0.00000000 0.00000000 0.00000000 15.00000000 0.00000000 0.00000000 0.00000000 15.00000000" energy_frozen_part=0.00000000 Properties=species:S:1:pos:R:3:velocities:R:3:Z:I:1
H         3.93221459      10.94630471      13.34089741         0.00000000       0.00000000       0.00000000          1
H         4.00777784      11.21878879      10.56163048         0.00000000       0.00000000       0.00000000          1
H         6.00935577       9.78290894      11.87929983         0.00000000       0.00000000       0.00000000          1
H         4.14172076       8.44134803      10.29297427         0.00000000       0.00000000       0.00000000          1
H         4.06615497       8.16886376      13.07224297         0.00000000       0.00000000       0.00000000          1
H         2.06457773       9.60474384      11.75458108         0.00000000       0.00000000       0.00000000          1
6
pbc=[F, F, F] list_num_par=6 frozen=false iter=20000 energy=-1.26974174 Lattice="15.00000000 0.00000000 0.00000000 0.00000000 15.00000000 0.00000000 0.00000000 0.00000000 15.00000000" energy_frozen_part=0.00000000 Properties=species:S:1:pos:R:3:velocities:R:3:Z:I:1
H         3.93198370      10.94649979      13.34070865         0.00000000       0.00000000       0.00000000          1
H         4.00750744      11.21847628      10.56139208         0.00000000       0.00000000       0.00000000          1
H         6.00927639       9.78311397      11.87931964         0.00000000       0.00000000       0.00000000          1
H         4.14181705       8.44100197      10.29324899         0.00000000       0.00000000       0.00000000          1
H         4.06629546       8.16902682      13.07257279         0.00000000       0.00000000       0.00000000          1
H         2.06452721       9.60438468      11.75463970         0.00000000       0.00000000       0.00000000          1
6
pbc=[F, F, F] list_num_par=6 frozen=false iter=20000 energy=-1.26974174 Lattice="15.00000000 0.00000000 0.00000000 0.00000000 15.00000000 0.00000000 0.00000000 0.00000000 15.00000000" energy_frozen_part=0.00000000 Properties=species:S:1:pos:R:3:velocities:R:3:Z:I:1
H         3.25379555       8.79799042      12.52299219         0.00000000       0.00000000       0.00000000          1
H         4.08263391      10.74916978      14.34239390         0.00000000       0.00000000       0.00000000          1
H         5.83468914       9.85455999      12.35889940         0.00000000       0.00000000       0.00000000          1
H         3.94129215      10.48260456      10.40315709         0.00000000       0.00000000       0.00000000          1
H         2.18923410      11.37721591      12.38666049         0.00000000       0.00000000       0.00000000          1
H         4.77012967      12.43378558      12.22255589         0.00000000       0.00000000       0.00000000          1
6
pbc=[F, F, F] list_num_par=6 frozen=false iter=20000 energy=-1.26974174 Lattice="15.00000000 0.00000000 0.00000000 0.00000000 15.00000000 0.00000000 0.00000000 0.00000000 15.00000000" energy_frozen_part=0.00000000 Properties=species:S:1:pos:R:3:velocities:R:3:Z:I:1
H         3.93203560      10.94651997      13.34074107         0.00000000       0.00000000       0.00000000          1
H         4.00753704      11.21845367      10.56142139         0.00000000       0.00000000       0.00000000          1
H         6.00926159       9.78301518      11.87933307         0.00000000       0.00000000       0.00000000          1
H         4.14171959       8.44096953      10.29330810         0.00000000       0.00000000       0.00000000          1
H         4.06622576       8.16904001      13.07263250         0.00000000       0.00000000       0.00000000          1
H         2.06449966       9.60447210      11.75471394         0.00000000       0.00000000       0.00000000          1
6
pbc=[F, F, F] list_num_par=6 frozen=false iter=20000 energy=-1.26974174 Lattice="15.00000000 0.00000000 0.00000000 0.00000000 15.00000000 0.00000000 0.00000000 0.00000000 15.00000000" energy_frozen_part=0.00000000 Properties=species:S:1:pos:R:3:velocities:R:3:Z:I:1
H         3.93233159      10.94611785      13.34094217         0.00000000       0.00000000       0.00000000          1
H         4.00776486      11.21858844      10.56166347         0.00000000       0.00000000       0.00000000          1
H         6.00938063       9.78269521      11.87924145         0.00000000       0.00000000       0.00000000          1
H         4.14165584       8.44114766      10.29300649         0.00000000       0.00000000       0.00000000          1
H         4.06622081       8.16867447      13.07227784         0.00000000       0.00000000       0.00000000          1
H         2.06460204       9.60457262      11.75470619         0.00000000       0.00000000       0.00000000          1
6
pbc=[F, F, F] list_num_par=6 frozen=false iter=20000 energy=-1.26974174 Lattice="15.00000000 0.00000000 0.00000000 0.00000000 15.00000000 0.00000000 0.00000000 0.00000000 15.00000000" energy_frozen_part=0.00000000 Properties=species:S:1:pos:R:3:velocities:R:3:Z:I:1
H         3.93208285      10.94648538      13.34076561         0.00000000       0.00000000       0.00000000          1
H         4.00757975      11.21847708      10.56144276         0.00000000       0.00000000       0.00000000          1
H         6.00927172       9.78296433      11.87933231         0.00000000       0.00000000       0.00000000          1
H         4.14170104       8.44100260      10.29327653         0.00000000       0.00000000       0.00000000          1
H         4.06619694       8.16900694      13.07259276         0.00000000       0.00000000       0.00000000          1
H         2.06450414       9.60451950      11.75471027         0.00000000       0.00000000       0.00000000          1
6
pbc=[F, F, F] list_num_par=6 frozen=false iter=20000 energy=-1.26974174 Lattice="15.00000000 0.00000000 0.00000000 0.00000000 15.00000000 0.00000000 0.00000000 0.00000000 15.00000000" energy_frozen_part=0.00000000 Properties=species:S:1:pos:R:3:velocities:R:3:Z:I:1
H         3.93208514      10.94648540      13.34075561         0.00000000       0.00000000       0.00000000          1
H         4.00758162      11.21846238      10.56143515         0.00000000       0.00000000       0.00000000          1
H         6.00927302       9.78296761      11.87932149         0.00000000       0.00000000       0.00000000          1
H         4.14170069       8.44098181      10.29327882         0.00000000       0.00000000       0.00000000          1
H         4.06620236       8.16900813      13.07259929         0.00000000       0.00000000       0.00000000          1
H         2.06451029       9.60450928      11.75470976         0.00000000       0.00000000       0.00000000          1
6
pbc=[F, F, F] list_num_par=6 frozen=false iter=20000 energy=-1.26974174 Lattice="15.00000000 0.00000000 0.00000000 0.00000000 15.00000000 0.00000000 0.00000000 0.00000000 15.00000000" energy_frozen_part=0.00000000 Properties=species:S:1:pos:R:3:velocities:R:3:Z:I:1
H         3.25386850       8.79786835      12.52291454         0.00000000       0.00000000       0.00000000          1
H         4.08296030      10.74900767      14.34224063         0.00000000       0.00000000       0.00000000          1
H         5.83479221       9.85434723      12.35857703         0.00000000       0.00000000       0.00000000          1
H         3.94123722      10.48247578      10.40302464         0.00000000       0.00000000       0.00000000          1
H         2.18940165      11.37713753      12.38669332         0.00000000       0.00000000       0.00000000          1
H         4.77031786      12.43361522      12.22235213         0.00000000       0.00000000       0.00000000          1
6
pbc=[F, F, F] list_num_par=6 frozen=false iter=20000 energy=-1.26974174 Lattice="15.00000000 0.00000000 0.00000000 0.00000000 15.00000000 0.00000000 0.00000000 0.00000000 15.00000000" energy_frozen_part=0.00000000 Properties=species:S:1:pos:R:3:velocities:R:3:Z:I:1
H         3.25389786       8.79795903      12.52288997         0.00000000       0.00000000       0.00000000          1
H         4.08267396      10.74911456      14.34233054         0.00000000       0.00000000       0.00000000          1
H         5.83478547       9.85456207      12.35885832         0.00000000       0.00000000       0.00000000          1
H         3.94141784      10.48261663      10.40309580         0.00000000       0.00000000       0.00000000          1
H         2.18930988      11.37717561      12.38657233         0.00000000       0.00000000       0.00000000          1
H         4.77019512      12.43377491      12.22253685         0.00000000       0.00000000       0.00000000          1
6
pbc=[F, F, F] list_num_par=6 frozen=false iter=20000 energy=-1.26974174 Lattice="15.00000000 0.00000000 0.00000000 0.00000000 15.00000000 0.00000000 0.00000000 0.00000000 15.00000000" energy_frozen_part=0.00000000 Properties=species:S:1:pos:R:3:velocities:R:3:Z:I:1
H         3.93207592      10.94648962      13.34074908         0.00000000       0.00000000       0.00000000          1
H         4.00751163      11.21845884      10.56142731         0.00000000       0.00000000       0.00000000          1
H         6.00923653       9.78296533      11.87927698         0.00000000       0.00000000       0.00000000          1
H         4.14163457       8.44098229      10.29327500         0.00000000       0.00000000       0.00000000          1
H         4.06619297       8.16901137      13.07260164         0.00000000       0.00000000       0.00000000          1
H         2.06447308       9.60450413      11.75474500         0.00000000       0.00000000       0.00000000          1
6
pbc=[F, F, F] list_num_par=6 frozen=false iter=20000 energy=-1.26974174 Lattice="15.00000000 0.00000000 0.00000000 0.00000000 15.00000000 0.00000000 0.00000000 0.00000000 15.00000000" energy_frozen_part=0.00000000 Properties=species:S:1:pos:R:3:velocities:R:3:Z:I:1
H         3.93229178      10.94609892      13.34094344         0.00000000       0.00000000       0.00000000          1
H         4.00787193      11.21859519      10.56168269         0.00000000       0.00000000       0.00000000          1
H         6.00942954       9.78269936      11.87934703         0.00000000       0.00000000       0.00000000          1
H         4.14179219       8.44115642      10.29300653         0.00000000       0.00000000       0.00000000          1
H         4.06621836       8.16865664      13.07227357         0.00000000       0.00000000       0.00000000          1
H         2.06465767       9.60455218      11.75461129         0.00000000       0.00000000       0.00000000          1
6
pbc=[F, F, F] list_num_par=6 frozen=false iter=20000 energy=-1.26974174 Lattice="15.00000000 0.00000000 0.00000000 0.00000000 15.00000000 0.00000000 0.00000000 0.00000000 15.00000000" energy_frozen_part=0.00000000 Properties=species:S:1:pos:R:3:velocities:R:3:Z:I:1
H         3.93212551      10.94650155      13.34077294         0.00000000       0.00000000       0.00000000          1
H         4.00755126      11.21845343      10.56145013         0.00000000       0.00000000       0.00000000          1
H         6.00927103       9.78294210      11.87929802         0.00000000       0.00000000       0.00000000          1
H         4.14163741       8.44096902      10.29332162         0.00000000       0.00000000       0.00000000          1
H         4.06621091       8.16901953      13.07264655         0.00000000       0.00000000       0.00000000          1
H         2.06449419       9.60452335      11.75479598         0.00000000       0.00000000       0.00000000          1
6
pbc=[F, F, F] list_num_par=6 frozen=false iter=20000 energy=-1.26974174 Lattice="15.00000000 0.00000000 0.00000000 0.00000000 15.00000000 0.00000000 0.00000000 0.00000000 15.00000000" energy_frozen_part=0.00000000 Properties=species:S:1:pos:R:3:velocities:R:3:Z:I:1
H         3.25379241       8.79801453      12.52303713         0.00000000       0.00000000       0.00000000          1
H         4.08268915      10.74920070      14.34239541         0.00000000       0.00000000       0.00000000          1
H         5.83469336       9.85456025      12.35886944         0.00000000       0.00000000       0.00000000          1
H         3.94126035      10.48260791      10.40317554         0.00000000       0.00000000       0.00000000          1
H         2.18925442      11.37725536      12.38669801         0.00000000       0.00000000       0.00000000          1
H         4.77015544      12.43379268      12.22253371         0.00000000       0.00000000       0.00000000          1
6
pbc=[F, F, F] list_num_par=6 frozen=false iter=20000 energy=-1.26974174 Lattice="15.00000000 0.00000000 0.00000000 0.00000000 15.00000000 0.00000000 0.00000000 0.00000000 15.00000000" energy_frozen_part=0.00000000 Properties=species:S:1:pos:R:3:velocities:R:3:Z:I:1
H         3.93214134      10.94650481      13.34075630         0.00000000       0.00000000       0.00000000          1
H         4.00755426      11.21845060      10.56143537         0.00000000       0.00000000       0.00000000          1
H         6.00928003       9.78294491      11.87927746         0.00000000       0.00000000       0.00000000          1
H         4.14164243       8.44096832      10.29330943         0.00000000       0.00000000       0.00000000          1
H         4.06622138       8.16902261      13.07263292         0.00000000       0.00000000       0.00000000          1
H         2.06449843       9.60452806      11.75478680         0.00000000       0.00000000       0.00000000          1
6
pbc=[F, F, F] list_num_par=6 frozen=false iter=20000 energy=-1.26974174 Lattice="15.00000000 0.00000000 0.00000000 0.00000000 15.00000000 0.00000000 0.00000000 0.00000000 15.00000000" energy_frozen_part=0.00000000 Properties=species:S:1:pos:R:3:velocities:R:3:Z:I:1
H         3.93243944      10.94761088      13.34038435         0.00000000       0.00000000       0.00000000          1
H         4.00781500      11.21867553      10.56097208         0.00000000       0.00000000       0.00000000          1
H         6.00953952       9.78355710      11.87924252         0.00000000       0.00000000       0.00000000          1
H         4.14184990       8.44110975      10.29371806         0.00000000       0.00000000       0.00000000          1
H         4.06647845       8.17004037      13.07312885         0.00000000       0.00000000       0.00000000          1
H         2.06475920       9.60515862      11.75486199         0.00000000       0.00000000       0.00000000          1
6
pbc=[F, F, F] list_num_par=6 frozen=false iter=20000 energy=-1.26974174 Lattice="15.00000000 0.00000000 0.00000000 0.00000000 15.00000000 0.00000000 0.00000000 0.00000000 15.00000000" energy_frozen_part=0.00000000 Properties=species:S:1:pos:R:3:velocities:R:3:Z:I:1
H         3.25389561       8.79795257      12.52288469         0.00000000       0.00000000       0.00000000          1
H         4.08267406      10.74911579      14.34232923         0.00000000       0.00000000       0.00000000          1
H         5.83478465       9.85455926      12.35886090         0.00000000       0.00000000       0.00000000          1
H         3.94141467      10.48260875      10.40309676         0.00000000       0.00000000       0.00000000          1
H         2.18931070      11.37716984      12.38656965         0.00000000       0.00000000       0.00000000          1
H         4.77019581      12.43377424      12.22253907         0.00000000       0.00000000       0.00000000          1
6
pbc=[F, F, F] list_num_par=6 frozen=false iter=20000 energy=-1.26974174 Lattice="15.00000000 0.00000000 0.00000000 0.00000000 15.00000000 0.00000000 0.00000000 0.00000000 15.00000000" energy_frozen_part=0.00000000 Properties=species:S:1:pos:R:3:velocities:R:3:Z:I:1
H         3.93225989      10.94608424      13.34093995         0.00000000       0.00000000       0.00000000          1
H         4.00784018      11.21862208      10.56168180         0.00000000       0.00000000       0.00000000          1
H         6.00938354       9.78268243      11.87932197         0.00000000       0.00000000       0.00000000          1
H         4.14173737       8.44118468      10.29296241         0.00000000       0.00000000       0.00000000          1
H         4.06614517       8.16864676      13.07222294         0.00000000       0.00000000       0.00000000          1
H         2.06460845       9.60458264      11.75457704         0.00000000       0.00000000       0.00000000          1
6
pbc=[F, F, F] list_num_par=6 frozen=false iter=20000 energy=-1.26974174 Lattice="15.00000000 0.00000000 0.00000000 0.00000000 15.00000000 0.00000000 0.00000000 0.00000000 15.00000000" energy_frozen_part=0.00000000 Properties=species:S:1:pos:R:3:velocities:R:3:Z:I:1
H         3.93208853      10.94649755      13.34078471         0.00000000       0.00000000       0.00000000          1
H         4.00754989      11.21849741      10.56147170         0.00000000       0.00000000       0.00000000          1
H         6.00926620       9.78299211      11.87932880         0.00000000       0.00000000       0.00000000          1
H         4.14167540       8.44101973      10.29329515         0.00000000       0.00000000       0.00000000          1
H         4.06621826       8.16901969      13.07261378         0.00000000       0.00000000       0.00000000          1
H         2.06450194       9.60452213      11.75475214         0.00000000       0.00000000       0.00000000          1
6
pbc=[F, F, F] list_num_par=6 frozen=false iter=20000 energy=-1.26974174 Lattice="15.00000000 0.00000000 0.00000000 0.00000000 15.00000000 0.00000000 0.00000000 0.00000000 15.00000000" energy_frozen_part=0.00000000 Properties=species:S:1:pos:R:3:velocities:R:3:Z:I:1
H         3.93230852      10.94606760      13.34091436         0.00000000       0.00000000       0.00000000          1
H         4.00783890      11.21855740      10.56164728         0.00000000       0.00000000       0.00000000          1
H         6.00941897       9.78266643      11.87928464         0.00000000       0.00000000       0.00000000          1
H         4.14175336       8.44111565      10.29298049         0.00000000       0.00000000       0.00000000          1
H         4.06622882       8.16862533      13.07224598         0.00000000       0.00000000       0.00000000          1
H         2.06464174       9.60452303      11.75461793         0.00000000       0.00000000       0.00000000          1
6
pbc=[F, F, F] list_num_par=6 frozen=false iter=20000 energy=-1.26974174 Lattice="15.00000000 0.00000000 0.00000000 0.00000000 15.00000000 0.00000000 0.00000000 0.00000000 15.00000000" energy_frozen_part=0.00000000 Properties=species:S:1:pos:R:3:velocities:R:3:Z:I:1
H         3.25381539       8.79799269      12.52299708         0.00000000       0.00000000       0.00000000          1
H         4.08263194      10.74918597      14.34238776         0.00000000       0.00000000       0.00000000          1
H         5.83470216       9.85456738      12.35890147         0.00000000       0.00000000       0.00000000          1
H         3.94131016      10.48260431      10.40316126         0.00000000       0.00000000       0.00000000          1
H         2.18924422      11.37721720      12.38664487         0.00000000       0.00000000       0.00000000          1
H         4.77013504      12.43379356      12.22255081         0.00000000       0.00000000       0.00000000          1
6
pbc=[F, F, F] list_num_par=6 frozen=false iter=20000 energy=-1.26974174 Lattice="15.00000000 0.00000000 0.00000000 0.00000000 15.00000000 0.00000000 0.00000000 0.00000000 15.00000000" energy_frozen_part=0.00000000 Properties=species:S:1:pos:R:3:velocities:R:3:Z:I:1
H         3.93231517      10.94611416      13.34094857         0.00000000       0.00000000       0.00000000          1
H         4.00780969      11.21862317      10.56167957         0.00000000       0.00000000       0.00000000          1
H         6.00939723       9.78269875      11.87927501         0.00000000       0.00000000       0.00000000          1
H         4.14169804       8.44117586      10.29299611         0.00000000       0.00000000       0.00000000          1
H         4.06620248       8.16867614      13.07226245         0.00000000       0.00000000       0.00000000          1
H         2.06461753       9.60459692      11.75465850         0.00000000       0.00000000       0.00000000          1
6
pbc=[F, F, F] list_num_par=6 frozen=false iter=20000 energy=-1.26974174 Lattice="15.00000000 0.00000000 0.00000000 0.00000000 15.00000000 0.00000000 0.00000000 0.00000000 15.00000000" energy_frozen_part=0.00000000 Properties=species:S:1:pos:R:3:velocities:R:3:Z:I:1
H         3.93207070      10.94652909      13.34072792         0.00000000       0.00000000       0.00000000          1
H         4.00754668      11.21845715      10.56141094         0.00000000       0.00000000       0.00000000          1
H         6.00926601       9.78299669      11.87931057         0.00000000       0.00000000       0.00000000          1
H         4.14169089       8.44097761      10.29329663         0.00000000       0.00000000       0.00000000          1
H         4.06621749       8.16904105      13.07262049         0.00000000       0.00000000       0.00000000          1
H         2.06449510       9.60450147      11.75472188         0.00000000       0.00000000       0.00000000          1
6
pbc=[F, F, F] list_num_par=6 frozen=false iter=20000 energy=-1.26974174 Lattice="15.00000000 0.00000000 0.00000000 0.00000000 15.00000000 0.00000000 0.00000000 0.00000000 15.00000000" energy_frozen_part=0.00000000 Properties=species:S:1:pos:R:3:velocities:R:3:Z:I:1
H         3.93214135      10.94651292      13.34076562         0.00000000       0.00000000       0.00000000          1
H         4.00756242      11.21844731      10.56143770         0.00000000       0.00000000       0.00000000          1
H         6.00927225       9.78294198      11.87929012         0.00000000       0.00000000       0.00000000          1
H         4.14163349       8.44096389      10.29331484         0.00000000       0.00000000       0.00000000          1
H         4.06622020       8.16902294      13.07264191         0.00000000       0.00000000       0.00000000          1
H         2.06450611       9.60453583      11.75479606         0.00000000       0.00000000       0.00000000          1
6
pbc=[F, F, F] list_num_par=6 frozen=false iter=20000 energy=-1.26974174 Lattice="15.00000000 0.00000000 0.00000000 0.00000000 15.00000000 0.00000000 0.00000000 0.00000000 15.00000000" energy_frozen_part=0.00000000 Properties=species:S:1:pos:R:3:velocities:R:3:Z:I:1
H         3.93206531      10.94649798      13.34075609         0.00000000       0.00000000       0.00000000          1
H         4.00754127      11.21848537      10.56144077         0.00000000       0.00000000       0.00000000          1
H         6.00925763       9.78299278      11.87932271         0.00000000       0.00000000       0.00000000          1
H         4.14168521       8.44100636      10.29328223         0.00000000       0.00000000       0.00000000          1
H         4.06619689       8.16902131      13.07259890         0.00000000       0.00000000       0.00000000          1
H         2.06449027       9.60451112      11.75472134         0.00000000       0.00000000       0.00000000          1
6
pbc=[F, F, F] list_num_par=6 frozen=false iter=20000 energy=-1.26974174 Lattice="15.00000000 0.00000000 0.00000000 0.00000000 15.00000000 0.00000000 0.00000000 0.00000000 15.00000000" energy_frozen_part=0.00000000 Properties=species:S:1:pos:R:3:velocities:R:3:Z:I:1
H         3.93225354      10.94607704      13.34094482         0.00000000       0.00000000       0.00000000          1
H         4.00782645      11.21862156      10.56168294         0.00000000       0.00000000       0.00000000          1