6
pbc=[F, F, F] list_num_par=6 frozen=false iter=9 energy=3.19467156 Lattice="15.00000000 0.00000000 0.00000000 0.00000000 15.00000000 0.00000000 0.00000000 0.00000000 15.00000000" energy_frozen_part=0.00000000 Properties=species:S:1:pos:R:3:velocities:R:3:Z:I:1
H         2.29433938       7.43757628       8.97864710         0.00000000       0.00000000       0.00000000          1
H        11.81093624       1.12697653       1.20223198         0.00000000       0.00000000       0.00000000          1
H         8.10986340       1.24947458      11.31131025         0.00000000       0.00000000       0.00000000          1
H         0.51460603       9.94251549      14.11342407         0.00000000       0.00000000       0.00000000          1
H         3.44155102       5.88635089       9.64620398         0.00000000       0.00000000       0.00000000          1
H         4.33248044      10.03488954       0.56443198         0.00000000       0.00000000       0.00000000          1
6
pbc=[F, F, F] list_num_par=6 frozen=false iter=19 energy=0.00586055 Lattice="15.00000000 0.00000000 0.00000000 0.00000000 15.00000000 0.00000000 0.00000000 0.00000000 15.00000000" energy_frozen_part=0.00000000 Properties=species:S:1:pos:R:3:velocities:R:3:Z:I:1
H         7.77256910      11.87276458       1.36223107         0.00000000       0.00000000       0.00000000          1
H         9.22731688      13.49033306       0.15292584         0.00000000       0.00000000       0.00000000          1
H         5.68401584      11.02034436      14.03374642         0.00000000       0.00000000       0.00000000          1
H        11.69838060       1.52659438      13.87794107         0.00000000       0.00000000       0.00000000          1
H        10.07262509      11.07829014      11.17287347         0.00000000       0.00000000       0.00000000          1
H        10.06359700       0.90341966       6.98432083         0.00000000       0.00000000       0.00000000          1
6
pbc=[F, F, F] list_num_par=6 frozen=false iter=29 energy=-0.00304085 Lattice="15.00000000 0.00000000 0.00000000 0.00000000 15.00000000 0.00000000 0.00000000 0.00000000 15.00000000" energy_frozen_part=0.00000000 Properties=species:S:1:pos:R:3:velocities:R:3:Z:I:1
H         1.07219324      11.08042165       1.63414013         0.00000000       0.00000000       0.00000000          1
H         3.20983598      11.27890743      12.15267906         0.00000000       0.00000000       0.00000000          1
H         7.05314764       8.62274791       4.49226044         0.00000000       0.00000000       0.00000000          1
H         2.01280348       4.81786997       4.26789440         0.00000000       0.00000000       0.00000000          1
H         3.14284946       0.64855172      13.64510891         0.00000000       0.00000000       0.00000000          1
H        13.80483087       2.11312959      11.31086287         0.00000000       0.00000000       0.00000000          1
6
pbc=[F, F, F] list_num_par=6 frozen=false iter=39 energy=-0.00639160 Lattice="15.00000000 0.00000000 0.00000000 0.00000000 15.00000000 0.00000000 0.00000000 0.00000000 15.00000000" energy_frozen_part=0.00000000 Properties=species:S:1:pos:R:3:velocities:R:3:Z:I:1
H         9.00504502       2.80438157       9.13723923         0.00000000       0.00000000       0.00000000          1
H         4.86411212      13.57980842      13.80976485         0.00000000       0.00000000       0.00000000          1
H        10.68572215       1.63924252       4.29626713         0.00000000       0.00000000       0.00000000          1
H        12.67001860      13.83159517      12.04997153         0.00000000       0.00000000       0.00000000          1
H        12.75706895      10.92309004       6.33691667         0.00000000       0.00000000       0.00000000          1
H         3.92679968       5.71977248       1.91749760         0.00000000       0.00000000       0.00000000          1
6
pbc=[F, F, F] list_num_par=6 frozen=false iter=49 energy=-0.00957992 Lattice="15.00000000 0.00000000 0.00000000 0.00000000 15.00000000 0.00000000 0.00000000 0.00000000 15.00000000" energy_frozen_part=0.00000000 Properties=species:S:1:pos:R:3:velocities:R:3:Z:I:1
H         0.79741857       2.46527505       7.57986919         0.00000000       0.00000000       0.00000000          1
H         1.76113740      10.48766294       5.07725416         0.00000000       0.00000000       0.00000000          1
H         3.92505540      11.22914469       6.05830026         0.00000000       0.00000000       0.00000000          1
H         3.62463096      14.33824782      10.32925680         0.00000000       0.00000000       0.00000000          1
H         5.84507685      12.05628687      14.46777152         0.00000000       0.00000000       0.00000000          1
H         3.11191599       8.33933468      14.20828215         0.00000000       0.00000000       0.00000000          1
6
pbc=[F, F, F] list_num_par=6 frozen=false iter=59 energy=-0.01366450 Lattice="15.00000000 0.00000000 0.00000000 0.00000000 15.00000000 0.00000000 0.00000000 0.00000000 15.00000000" energy_frozen_part=0.00000000 Properties=species:S:1:pos:R:3:velocities:R:3:Z:I:1
H         1.22045305       9.20944385       3.09150155         0.00000000       0.00000000       0.00000000          1
H         3.28302807      13.15241662       6.41305206         0.00000000       0.00000000       0.00000000          1
H         6.73140185       9.09963526       0.16576055         0.00000000       0.00000000       0.00000000          1
H        11.52414289      14.16777357       9.69137998         0.00000000       0.00000000       0.00000000          1
H         2.39724634       7.54942862       8.04129235         0.00000000       0.00000000       0.00000000          1
H         9.52300942       8.58938868      10.95010357         0.00000000       0.00000000       0.00000000          1
6
pbc=[F, F, F] list_num_par=6 frozen=false iter=69 energy=-0.01679611 Lattice="15.00000000 0.00000000 0.00000000 0.00000000 15.00000000 0.00000000 0.00000000 0.00000000 15.00000000" energy_frozen_part=0.00000000 Properties=species:S:1:pos:R:3:velocities:R:3:Z:I:1
H         6.23960771       9.36024372       6.68099085         0.00000000       0.00000000       0.00000000          1
H         8.28818510       2.37302828      14.67060918         0.00000000       0.00000000       0.00000000          1
H         1.11981914      12.39295735       9.64490359         0.00000000       0.00000000       0.00000000          1
H         4.87061740      13.57775289      12.92651940         0.00000000       0.00000000       0.00000000          1
H         7.93561825       7.46469775       2.44806885         0.00000000       0.00000000       0.00000000          1
H         9.88291695       2.54298983       9.37388525         0.00000000       0.00000000       0.00000000          1
6
pbc=[F, F, F] list_num_par=6 frozen=false iter=79 energy=-0.02151175 Lattice="15.00000000 0.00000000 0.00000000 0.00000000 15.00000000 0.00000000 0.00000000 0.00000000 15.00000000" energy_frozen_part=0.00000000 Properties=species:S:1:pos:R:3:velocities:R:3:Z:I:1
H        13.12720970       9.76978987       8.96482931         0.00000000       0.00000000       0.00000000          1
H        14.98542105       0.98929043       2.91259667         0.00000000       0.00000000       0.00000000          1
H         8.94931809      10.55781955      13.46485287         0.00000000       0.00000000       0.00000000          1
H         7.42096030       6.67801796       4.69031553         0.00000000       0.00000000       0.00000000          1
H         3.39735152       8.18152626       3.95023621         0.00000000       0.00000000       0.00000000          1
H         6.28435825       1.80439299       3.43963540         0.00000000       0.00000000       0.00000000          1
6
pbc=[F, F, F] list_num_par=6 frozen=false iter=89 energy=-0.02697064 Lattice="15.00000000 0.00000000 0.00000000 0.00000000 15.00000000 0.00000000 0.00000000 0.00000000 15.00000000" energy_frozen_part=0.00000000 Properties=species:S:1:pos:R:3:velocities:R:3:Z:I:1
H         4.54619466      11.08757265       4.26114265         0.00000000       0.00000000       0.00000000          1
H         0.31860221      10.73264582      14.26208235         0.00000000       0.00000000       0.00000000          1
H         3.32569154      13.45115654      13.47900869         0.00000000       0.00000000       0.00000000          1
H        11.82428040       0.53181606       8.37093971         0.00000000       0.00000000       0.00000000          1
H         4.66220087       4.70396339      12.24228629         0.00000000       0.00000000       0.00000000          1
H         9.28092128      10.98244681       3.50209019         0.00000000       0.00000000       0.00000000          1
6
pbc=[F, F, F] list_num_par=6 frozen=false iter=99 energy=-0.03525149 Lattice="15.00000000 0.00000000 0.00000000 0.00000000 15.00000000 0.00000000 0.00000000 0.00000000 15.00000000" energy_frozen_part=0.00000000 Properties=species:S:1:pos:R:3:velocities:R:3:Z:I:1
H         3.43822188       2.19045355       5.93744830         0.00000000       0.00000000       0.00000000          1
H         7.42552100      14.12968338      12.90315353         0.00000000       0.00000000       0.00000000          1
H         9.39340258       6.30205997       3.05756144         0.00000000       0.00000000       0.00000000          1
H         2.69385262       8.92015998       6.71670697         0.00000000       0.00000000       0.00000000          1
H         3.29851679       1.59597151       1.06491564         0.00000000       0.00000000       0.00000000          1
H         5.62061189       9.40377629       9.29923757         0.00000000       0.00000000       0.00000000          1
6
pbc=[F, F, F] list_num_par=6 frozen=false iter=109 energy=-0.04401106 Lattice="15.00000000 0.00000000 0.00000000 0.00000000 15.00000000 0.00000000 0.00000000 0.00000000 15.00000000" energy_frozen_part=0.00000000 Properties=species:S:1:pos:R:3:velocities:R:3:Z:I:1
H         1.56431025       4.53421872      13.28532072         0.00000000       0.00000000       0.00000000          1
H         5.65083672       5.19737060       3.49856557         0.00000000       0.00000000       0.00000000          1
H        14.22381636       2.72337309       9.99857796         0.00000000       0.00000000       0.00000000          1
H         7.96503861       8.84874790       8.76515198         0.00000000       0.00000000       0.00000000          1
H         1.99093277      14.46539284      10.92018348         0.00000000       0.00000000       0.00000000          1
H         6.85211601       2.48675428       1.54639659         0.00000000       0.00000000       0.00000000          1
6
pbc=[F, F, F] list_num_par=6 frozen=false iter=119 energy=-0.04947089 Lattice="15.00000000 0.00000000 0.00000000 0.00000000 15.00000000 0.00000000 0.00000000 0.00000000 15.00000000" energy_frozen_part=0.00000000 Properties=species:S:1:pos:R:3:velocities:R:3:Z:I:1
H         4.52584050       1.78701677       5.57785310         0.00000000       0.00000000       0.00000000          1
H        14.23920910      13.62631063       2.14365256         0.00000000       0.00000000       0.00000000          1
H        14.49089342      10.33166379       3.25831865         0.00000000       0.00000000       0.00000000          1
H         0.10839844      12.67823312      14.38789528         0.00000000       0.00000000       0.00000000          1
H         0.52858115      10.69457378       6.25358914         0.00000000       0.00000000       0.00000000          1
H         2.01649560       5.19188467       1.33368726         0.00000000       0.00000000       0.00000000          1
6
pbc=[F, F, F] list_num_par=6 frozen=false iter=129 energy=-0.05978870 Lattice="15.00000000 0.00000000 0.00000000 0.00000000 15.00000000 0.00000000 0.00000000 0.00000000 15.00000000" energy_frozen_part=0.00000000 Properties=species:S:1:pos:R:3:velocities:R:3:Z:I:1
H         1.68425499       9.13530103      10.49578230         0.00000000       0.00000000       0.00000000          1
H         7.53865234       6.14209749       4.33647686         0.00000000       0.00000000       0.00000000          1
H        11.50387391       5.67105677      11.41083710         0.00000000       0.00000000       0.00000000          1
H         8.90198694       9.43114197       6.56331593         0.00000000       0.00000000       0.00000000          1
H         1.09077663       5.64639149      11.06890482         0.00000000       0.00000000       0.00000000          1
H         3.87995529      14.85243262       4.84403866         0.00000000       0.00000000       0.00000000          1
6
pbc=[F, F, F] list_num_par=6 frozen=false iter=139 energy=-0.06631747 Lattice="15.00000000 0.00000000 0.00000000 0.00000000 15.00000000 0.00000000 0.00000000 0.00000000 15.00000000" energy_frozen_part=0.00000000 Properties=species:S:1:pos:R:3:velocities:R:3:Z:I:1
H         3.29581186       1.74865793      12.83574906         0.00000000       0.00000000       0.00000000          1
H         5.76088673       6.40072402       6.84870241         0.00000000       0.00000000       0.00000000          1
H         3.19395872       5.18068615       4.60618813         0.00000000       0.00000000       0.00000000          1
H         7.86722970       7.76748290      11.92962297         0.00000000       0.00000000       0.00000000          1
H         1.02704156       1.80257558       5.36587752         0.00000000       0.00000000       0.00000000          1
H        11.28163960       4.55607547       6.14714595         0.00000000       0.00000000       0.00000000          1
6
pbc=[F, F, F] list_num_par=6 frozen=false iter=149 energy=-0.07109686 Lattice="15.00000000 0.00000000 0.00000000 0.00000000 15.00000000 0.00000000 0.00000000 0.00000000 15.00000000" energy_frozen_part=0.00000000 Properties=species:S:1:pos:R:3:velocities:R:3:Z:I:1
H         9.33026921      12.32259175       5.08122597         0.00000000       0.00000000       0.00000000          1
H        11.11836080       0.30863537       0.87893801         0.00000000       0.00000000       0.00000000          1
H         6.93470093      13.50338988       3.26187322         0.00000000       0.00000000       0.00000000          1
H         9.09149336       4.15458166      14.11203321         0.00000000       0.00000000       0.00000000          1
H         4.76884250       2.25675257       4.06510405         0.00000000       0.00000000       0.00000000          1
H        14.73598893      13.77940569       4.84982513         0.00000000       0.00000000       0.00000000          1
6
pbc=[F, F, F] list_num_par=6 frozen=false iter=159 energy=-0.07923314 Lattice="15.00000000 0.00000000 0.00000000 0.00000000 15.00000000 0.00000000 0.00000000 0.00000000 15.00000000" energy_frozen_part=0.00000000 Properties=species:S:1:pos:R:3:velocities:R:3:Z:I:1
H        11.84878218      14.23164502       1.31303915         0.00000000       0.00000000       0.00000000          1
H         0.48502082       2.57003809       6.13261331         0.00000000       0.00000000       0.00000000          1
H        11.90788582      14.38890436       5.88421231         0.00000000       0.00000000       0.00000000          1
H        11.33114322       5.44467910       7.40119639         0.00000000       0.00000000       0.00000000          1
H         3.23678388       2.30053099       9.91880312         0.00000000       0.00000000       0.00000000          1
H        14.41853478       6.15797192       6.41975928         0.00000000       0.00000000       0.00000000          1
6
pbc=[F, F, F] list_num_par=6 frozen=false iter=169 energy=-0.08452687 Lattice="15.00000000 0.00000000 0.00000000 0.00000000 15.00000000 0.00000000 0.00000000 0.00000000 15.00000000" energy_frozen_part=0.00000000 Properties=species:S:1:pos:R:3:velocities:R:3:Z:I:1
H         0.85177085       1.30265510       6.24736879         0.00000000       0.00000000       0.00000000          1
H        11.77498053       9.33821289       9.97262123         0.00000000       0.00000000       0.00000000          1
H        13.57975294      10.63783769       2.36465285         0.00000000       0.00000000       0.00000000          1
H         8.79864978       9.66126114      10.74481811         0.00000000       0.00000000       0.00000000          1
H         4.63269885       3.71185580      10.44311385         0.00000000       0.00000000       0.00000000          1
H         2.15152440       5.92724645       2.02575194         0.00000000       0.00000000       0.00000000          1
6
pbc=[F, F, F] list_num_par=6 frozen=false iter=179 energy=-0.09068888 Lattice="15.00000000 0.00000000 0.00000000 0.00000000 15.00000000 0.00000000 0.00000000 0.00000000 15.00000000" energy_frozen_part=0.00000000 Properties=species:S:1:pos:R:3:velocities:R:3:Z:I:1
H         1.20944406       2.66205923       1.55555995         0.00000000       0.00000000       0.00000000          1
H         6.67504374      13.91904784       0.40369961         0.00000000       0.00000000       0.00000000          1
H         7.73327449       6.60669630       3.61746983         0.00000000       0.00000000       0.00000000          1
H        13.36406100       3.83095757       2.29099831         0.00000000       0.00000000       0.00000000          1
H         8.04982560       6.44183886      10.46509441         0.00000000       0.00000000       0.00000000          1
H         9.01491385       3.82926210       9.27769578         0.00000000       0.00000000       0.00000000          1
6
pbc=[F, F, F] list_num_par=6 frozen=false iter=189 energy=-0.09238358 Lattice="15.00000000 0.00000000 0.00000000 0.00000000 15.00000000 0.00000000 0.00000000 0.00000000 15.00000000" energy_frozen_part=0.00000000 Properties=species:S:1:pos:R:3:velocities:R:3:Z:I:1
H         8.70228593       8.04925786       2.79674583         0.00000000       0.00000000       0.00000000          1
H         0.23528436       3.80862364      12.39857880         0.00000000       0.00000000       0.00000000          1
H         9.09633472      13.64515169      11.59266543         0.00000000       0.00000000       0.00000000          1
H         0.52801662      11.19656333       8.85330126         0.00000000       0.00000000       0.00000000          1
H         1.82019202       2.13722626      10.51265870         0.00000000       0.00000000       0.00000000          1
H         3.01835569       4.33198787       2.39119255         0.00000000       0.00000000       0.00000000          1
6
pbc=[F, F, F] list_num_par=6 frozen=false iter=199 energy=-0.09580506 Lattice="15.00000000 0.00000000 0.00000000 0.00000000 15.00000000 0.00000000 0.00000000 0.00000000 15.00000000" energy_frozen_part=0.00000000 Properties=species:S:1:pos:R:3:velocities:R:3:Z:I:1
H         0.49343484       2.09493577      12.24136029         0.00000000       0.00000000       0.00000000          1
H         4.98463616      12.18082394       4.30782614         0.00000000       0.00000000       0.00000000          1
H         7.02048105       1.77444347      14.60034703         0.00000000       0.00000000       0.00000000          1
H         7.29315654       9.76752374       5.65807271         0.00000000       0.00000000       0.00000000          1
H         1.66316798       2.54678430       7.45064284         0.00000000       0.00000000       0.00000000          1
H         0.02078191       1.68314557       9.85599785         0.00000000       0.00000000       0.00000000          1
6
pbc=[F, F, F] list_num_par=6 frozen=false iter=209 energy=-0.09905090 Lattice="15.00000000 0.00000000 0.00000000 0.00000000 15.00000000 0.00000000 0.00000000 0.00000000 15.00000000" energy_frozen_part=0.00000000 Properties=species:S:1:pos:R:3:velocities:R:3:Z:I:1
H         6.19751019       9.56844487      11.26431367         0.00000000       0.00000000       0.00000000          1
H         7.42415154      10.26998063       6.70128552         0.00000000       0.00000000       0.00000000          1
H         6.95923794       7.37537199       3.63580516         0.00000000       0.00000000       0.00000000          1
H        13.09834911       0.96058102      10.97889673         0.00000000       0.00000000       0.00000000          1
H        10.04884724       5.56059257      12.82011412         0.00000000       0.00000000       0.00000000          1
H         4.30693873      10.70188420      13.60282672         0.00000000       0.00000000       0.00000000          1
6
pbc=[F, F, F] list_num_par=6 frozen=false iter=219 energy=-0.10035594 Lattice="15.00000000 0.00000000 0.00000000 0.00000000 15.00000000 0.00000000 0.00000000 0.00000000 15.00000000" energy_frozen_part=0.00000000 Properties=species:S:1:pos:R:3:velocities:R:3:Z:I:1
H         8.73567812       4.99730938       2.93835357         0.00000000       0.00000000       0.00000000          1
H         1.39847948       6.48371560      12.45629737         0.00000000       0.00000000       0.00000000          1
H        11.01716804       1.48149975       0.17381547         0.00000000       0.00000000       0.00000000          1
H        14.36354465      10.07019325      14.64211947         0.00000000       0.00000000       0.00000000          1
H         9.21913670       1.86251053       4.94046184         0.00000000       0.00000000       0.00000000          1
H        12.45253998       3.50111175       4.57140566         0.00000000       0.00000000       0.00000000          1
6
pbc=[F, F, F] list_num_par=6 frozen=false iter=229 energy=-0.10248599 Lattice="15.00000000 0.00000000 0.00000000 0.00000000 15.00000000 0.00000000 0.00000000 0.00000000 15.00000000" energy_frozen_part=0.00000000 Properties=species:S:1:pos:R:3:velocities:R:3:Z:I:1
H         8.76078205      13.94006365      12.88259234         0.00000000       0.00000000       0.00000000          1
H         6.75656205       6.23664381      14.95450616         0.00000000       0.00000000       0.00000000          1
H         6.37179085       8.55569712      13.41078410         0.00000000       0.00000000       0.00000000          1
H         7.01275525       6.78870454       3.23303192         0.00000000       0.00000000       0.00000000          1
H        13.07918631       1.15272129       3.58305665         0.00000000       0.00000000       0.00000000          1
H        13.97090541      12.99059160       0.00382453         0.00000000       0.00000000       0.00000000          1
6
pbc=[F, F, F] list_num_par=6 frozen=false iter=239 energy=-0.10402623 Lattice="15.00000000 0.00000000 0.00000000 0.00000000 15.00000000 0.00000000 0.00000000 0.00000000 15.00000000" energy_frozen_part=0.00000000 Properties=species:S:1:pos:R:3:velocities:R:3:Z:I:1
H         2.05638210       3.53453544       3.64639218         0.00000000       0.00000000       0.00000000          1
H        13.18295001      13.23020209       7.77692491         0.00000000       0.00000000       0.00000000          1
H        14.35017829       6.35344150       7.43173012         0.00000000       0.00000000       0.00000000          1
H        11.75179571       5.07835558       7.20667522         0.00000000       0.00000000       0.00000000          1
H         3.83176874      14.33031185      11.41964148         0.00000000       0.00000000       0.00000000          1
H         0.08945820       6.50180691       0.23433283         0.00000000       0.00000000       0.00000000          1
6
pbc=[F, F, F] list_num_par=6 frozen=false iter=249 energy=-0.10636521 Lattice="15.00000000 0.00000000 0.00000000 0.00000000 15.00000000 0.00000000 0.00000000 0.00000000 15.00000000" energy_frozen_part=0.00000000 Properties=species:S:1:pos:R:3:velocities:R:3:Z:I:1
H        11.18022770      11.64062367      13.70234247         0.00000000       0.00000000       0.00000000          1
H         6.20843900       4.45565558       5.23738239         0.00000000       0.00000000       0.00000000          1
H         3.11391168      12.15597214       9.10002391         0.00000000       0.00000000       0.00000000          1
H         2.56079695       4.59752868       1.89543341         0.00000000       0.00000000       0.00000000          1
H         4.90339101      10.64338285      14.09539772         0.00000000       0.00000000       0.00000000          1
H        13.29188592      13.24821022      14.93360928         0.00000000       0.00000000       0.00000000          1
6
pbc=[F, F, F] list_num_par=6 frozen=false iter=259 energy=-0.10900727 Lattice="15.00000000 0.00000000 0.00000000 0.00000000 15.00000000 0.00000000 0.00000000 0.00000000 15.00000000" energy_frozen_part=0.00000000 Properties=species:S:1:pos:R:3:velocities:R:3:Z:I:1
H         2.07094411      12.06171010       9.87802150         0.00000000       0.00000000       0.00000000          1
H         0.20544354       1.65022169       2.46580741         0.00000000       0.00000000       0.00000000          1
H        13.61759000      12.69931723       4.05228700         0.00000000       0.00000000       0.00000000          1
H         0.68042217      14.07586525      11.36821987         0.00000000       0.00000000       0.00000000          1
H         4.71969738       4.95209389       2.99969073         0.00000000       0.00000000       0.00000000          1
H         0.83428997       7.98566039       2.15888295         0.00000000       0.00000000       0.00000000          1
6
pbc=[F, F, F] list_num_par=6 frozen=false iter=269 energy=-0.11093040 Lattice="15.00000000 0.00000000 0.00000000 0.00000000 15.00000000 0.00000000 0.00000000 0.00000000 15.00000000" energy_frozen_part=0.00000000 Properties=species:S:1:pos:R:3:velocities:R:3:Z:I:1
H         0.75187126       6.56050665       8.05277403         0.00000000       0.00000000       0.00000000          1
H        11.09791365      14.01546739       7.54513712         0.00000000       0.00000000       0.00000000          1
H         0.68548816       7.94983385      10.14379822         0.00000000       0.00000000       0.00000000          1
H         5.00220263       1.44107427       3.75518711         0.00000000       0.00000000       0.00000000          1
H         2.89313396      10.04277662       0.61437644         0.00000000       0.00000000       0.00000000          1
H         0.13465628       9.52317366       0.98750338         0.00000000       0.00000000       0.00000000          1
6
pbc=[F, F, F] list_num_par=6 frozen=false iter=279 energy=-0.11346279 Lattice="15.00000000 0.00000000 0.00000000 0.00000000 15.00000000 0.00000000 0.00000000 0.00000000 15.00000000" energy_frozen_part=0.00000000 Properties=species:S:1:pos:R:3:velocities:R:3:Z:I:1
H        11.77264435       7.86352996      11.49383335         0.00000000       0.00000000       0.00000000          1
H         6.13305408       5.39740372       1.87385214         0.00000000       0.00000000       0.00000000          1
H        10.59582818       8.64035576       8.37518417         0.00000000       0.00000000       0.00000000          1
H        12.03981899       6.27819980       0.61969116         0.00000000       0.00000000       0.00000000          1
H         5.17695722       9.69360782       0.14898873         0.00000000       0.00000000       0.00000000          1
H         7.81870528       7.53324739       6.51820982         0.00000000       0.00000000       0.00000000          1
6
pbc=[F, F, F] list_num_par=6 frozen=false iter=289 energy=-0.11528287 Lattice="15.00000000 0.00000000 0.00000000 0.00000000 15.00000000 0.00000000 0.00000000 0.00000000 15.00000000" energy_frozen_part=0.00000000 Properties=species:S:1:pos:R:3:velocities:R:3:Z:I:1
H         7.20910074      11.36171176       3.82171267         0.00000000       0.00000000       0.00000000          1
H        10.98331867       2.82110727       8.96900252         0.00000000       0.00000000       0.00000000          1
H         7.33615771      14.21459296       3.11814293         0.00000000       0.00000000       0.00000000          1
H        12.74845294       0.23787163      11.59606245         0.00000000       0.00000000       0.00000000          1
H         1.24435491       1.97031615       1.15769330         0.00000000       0.00000000       0.00000000          1
H        13.95319577      13.70432332       2.65396833         0.00000000       0.00000000       0.00000000          1
6
pbc=[F, F, F] list_num_par=6 frozen=false iter=299 energy=-0.11935354 Lattice="15.00000000 0.00000000 0.00000000 0.00000000 15.00000000 0.00000000 0.00000000 0.00000000 15.00000000" energy_frozen_part=0.00000000 Properties=species:S:1:pos:R:3:velocities:R:3:Z:I:1
H         2.52366129       3.33822139       7.50044349         0.00000000       0.00000000       0.00000000          1
H        11.00640117      11.53226928       4.55138075         0.00000000       0.00000000       0.00000000          1
H         8.19225008      11.00030690       5.17316889         0.00000000       0.00000000       0.00000000          1
H        13.09879932       4.73473024       6.05823654         0.00000000       0.00000000       0.00000000          1
H         7.65118671      10.31479613      12.79442914         0.00000000       0.00000000       0.00000000          1
H         4.98755450       2.23710560       4.58535184         0.00000000       0.00000000       0.00000000          1
6
pbc=[F, F, F] list_num_par=6 frozen=false iter=309 energy=-0.12442659 Lattice="15.00000000 0.00000000 0.00000000 0.00000000 15.00000000 0.00000000 0.00000000 0.00000000 15.00000000" energy_frozen_part=0.00000000 Properties=species:S:1:pos:R:3:velocities:R:3:Z:I:1
H         3.18916850      12.36615930       9.13879549         0.00000000       0.00000000       0.00000000          1
H         8.71523433      12.07707260       5.99831369         0.00000000       0.00000000       0.00000000          1