6
pbc=[F, F, F] list_num_par=6 frozen=false iter=9 energy=23.05556895 Lattice="15.00000000 0.00000000 0.00000000 0.00000000 15.00000000 0.00000000 0.00000000 0.00000000 15.00000000" energy_frozen_part=0.00000000 Properties=species:S:1:pos:R:3:velocities:R:3:Z:I:1
H         5.51162896       4.49104918      11.70146992         0.00000000       0.00000000       0.00000000          1
H        11.27787171      14.97817751       5.60395835         0.00000000       0.00000000       0.00000000          1
H         9.47979623      10.32634601      14.57584047         0.00000000       0.00000000       0.00000000          1
H        11.27391148       1.02685050      10.91955135         0.00000000       0.00000000       0.00000000          1
H         9.41135643       6.64009522       5.96309247         0.00000000       0.00000000       0.00000000          1
H        10.05326023       7.70080146       7.21759535         0.00000000       0.00000000       0.00000000          1
6
pbc=[F, F, F] list_num_par=6 frozen=false iter=19 energy=3.32112166 Lattice="15.00000000 0.00000000 0.00000000 0.00000000 15.00000000 0.00000000 0.00000000 0.00000000 15.00000000" energy_frozen_part=0.00000000 Properties=species:S:1:pos:R:3:velocities:R:3:Z:I:1
H         3.98947077      11.34746814      10.30702220         0.00000000       0.00000000       0.00000000          1
H         0.53871557       0.00634514       4.60266076         0.00000000       0.00000000       0.00000000          1
H         4.87949197      10.57236176       3.03029727         0.00000000       0.00000000       0.00000000          1
H         1.92859758      14.32421004       1.66232747         0.00000000       0.00000000       0.00000000          1
H         2.74457323      11.07120886      11.89333341         0.00000000       0.00000000       0.00000000          1
H         4.05222204       0.94923255       6.73591853         0.00000000       0.00000000       0.00000000          1
6
pbc=[F, F, F] list_num_par=6 frozen=false iter=29 energy=-0.00115987 Lattice="15.00000000 0.00000000 0.00000000 0.00000000 15.00000000 0.00000000 0.00000000 0.00000000 15.00000000" energy_frozen_part=0.00000000 Properties=species:S:1:pos:R:3:velocities:R:3:Z:I:1
H         6.48994724       5.46889185       5.18968170         0.00000000       0.00000000       0.00000000          1
H        14.57594337      11.82853907      14.98920928         0.00000000       0.00000000       0.00000000          1
H         2.60658150      14.26147353       6.61425197         0.00000000       0.00000000       0.00000000          1
H        11.39881083       0.37622548       0.54872320         0.00000000       0.00000000       0.00000000          1
H         6.90530847       0.63510835      12.76032960         0.00000000       0.00000000       0.00000000          1
H        10.51998963      11.15861199       5.04627043         0.00000000       0.00000000       0.00000000          1
6
pbc=[F, F, F] list_num_par=6 frozen=false iter=39 energy=-0.00436605 Lattice="15.00000000 0.00000000 0.00000000 0.00000000 15.00000000 0.00000000 0.00000000 0.00000000 15.00000000" energy_frozen_part=0.00000000 Properties=species:S:1:pos:R:3:velocities:R:3:Z:I:1
H         7.28242839       0.93939157      12.88301818         0.00000000       0.00000000       0.00000000          1
H         3.78260762      10.35167192       2.56484945         0.00000000       0.00000000       0.00000000          1
H         1.37304175       0.30477070      14.80029436         0.00000000       0.00000000       0.00000000          1
H         6.07880633       4.74860644       2.60434929         0.00000000       0.00000000       0.00000000          1
H        12.46351067       4.14802604       0.26221729         0.00000000       0.00000000       0.00000000          1
H         9.61971580       9.60598172      13.49248011         0.00000000       0.00000000       0.00000000          1
6
pbc=[F, F, F] list_num_par=6 frozen=false iter=49 energy=-0.00644693 Lattice="15.00000000 0.00000000 0.00000000 0.00000000 15.00000000 0.00000000 0.00000000 0.00000000 15.00000000" energy_frozen_part=0.00000000 Properties=species:S:1:pos:R:3:velocities:R:3:Z:I:1
H        14.04774319       1.07430122       5.25762433         0.00000000       0.00000000       0.00000000          1
H        12.69710504       8.01399189      13.58457569         0.00000000       0.00000000       0.00000000          1
H        14.47440302      13.32683842       1.86081996         0.00000000       0.00000000       0.00000000          1
H         6.42107477       6.96725334      12.92210946         0.00000000       0.00000000       0.00000000          1
H         9.65731528       0.47422160       0.77387901         0.00000000       0.00000000       0.00000000          1
H        10.02773756      13.82700549       4.93834280         0.00000000       0.00000000       0.00000000          1
6
pbc=[F, F, F] list_num_par=6 frozen=false iter=59 energy=-0.00859941 Lattice="15.00000000 0.00000000 0.00000000 0.00000000 15.00000000 0.00000000 0.00000000 0.00000000 15.00000000" energy_frozen_part=0.00000000 Properties=species:S:1:pos:R:3:velocities:R:3:Z:I:1
H         9.71535924       5.99096370       0.79984279         0.00000000       0.00000000       0.00000000          1
H         2.10538905       1.31502324      11.14686335         0.00000000       0.00000000       0.00000000          1
H        14.04400128       4.53198750       9.00327530         0.00000000       0.00000000       0.00000000          1
H         4.94497768       6.07255621      10.44469998         0.00000000       0.00000000       0.00000000          1
H         7.37624358       6.36396326      14.96457278         0.00000000       0.00000000       0.00000000          1
H        12.13505531      14.36545353      10.30910970         0.00000000       0.00000000       0.00000000          1
6
pbc=[F, F, F] list_num_par=6 frozen=false iter=69 energy=-0.01369376 Lattice="15.00000000 0.00000000 0.00000000 0.00000000 15.00000000 0.00000000 0.00000000 0.00000000 15.00000000" energy_frozen_part=0.00000000 Properties=species:S:1:pos:R:3:velocities:R:3:Z:I:1
H         9.51955166       7.68261012       9.11250503         0.00000000       0.00000000       0.00000000          1
H        11.10183192       8.06042314      13.43129966         0.00000000       0.00000000       0.00000000          1
H         5.21328248       1.19755824       5.95355871         0.00000000       0.00000000       0.00000000          1
H         6.29645890       0.07959798      12.15098747         0.00000000       0.00000000       0.00000000          1
H        10.61135144      14.09245063      12.12146971         0.00000000       0.00000000       0.00000000          1
H        12.06726304      11.96906714       0.80605039         0.00000000       0.00000000       0.00000000          1
6
pbc=[F, F, F] list_num_par=6 frozen=false iter=79 energy=-0.01626938 Lattice="15.00000000 0.00000000 0.00000000 0.00000000 15.00000000 0.00000000 0.00000000 0.00000000 15.00000000" energy_frozen_part=0.00000000 Properties=species:S:1:pos:R:3:velocities:R:3:Z:I:1
H        12.93770560       9.02193381       6.22456927         0.00000000       0.00000000       0.00000000          1
H         6.68879004      14.04518026       9.38405637         0.00000000       0.00000000       0.00000000          1
H         8.20666485      12.47518214       2.95513080         0.00000000       0.00000000       0.00000000          1
H        12.87603956       5.22449462       0.46890145         0.00000000       0.00000000       0.00000000          1
H         1.85155740       4.20217511       4.91309978         0.00000000       0.00000000       0.00000000          1
H         8.75938114      12.31801114      12.84011109         0.00000000       0.00000000       0.00000000          1
6
pbc=[F, F, F] list_num_par=6 frozen=false iter=89 energy=-0.02040014 Lattice="15.00000000 0.00000000 0.00000000 0.00000000 15.00000000 0.00000000 0.00000000 0.00000000 15.00000000" energy_frozen_part=0.00000000 Properties=species:S:1:pos:R:3:velocities:R:3:Z:I:1
H         0.62680584      13.44703078      14.21492064         0.00000000       0.00000000       0.00000000          1
H         1.19178867      10.74612077       1.13298093         0.00000000       0.00000000       0.00000000          1
H         8.73661900       4.54757645       0.98015707         0.00000000       0.00000000       0.00000000          1
H         5.31891195       1.97538352       4.14125497         0.00000000       0.00000000       0.00000000          1
H        14.76112470       1.74930318       5.37557151         0.00000000       0.00000000       0.00000000          1
H         3.90407445      11.53928426      12.30736515         0.00000000       0.00000000       0.00000000          1
6
pbc=[F, F, F] list_num_par=6 frozen=false iter=99 energy=-0.02638806 Lattice="15.00000000 0.00000000 0.00000000 0.00000000 15.00000000 0.00000000 0.00000000 0.00000000 15.00000000" energy_frozen_part=0.00000000 Properties=species:S:1:pos:R:3:velocities:R:3:Z:I:1
H         2.86381802      12.61988671       0.22059122         0.00000000       0.00000000       0.00000000          1
H         8.67351435       6.09379973       0.27541335         0.00000000       0.00000000       0.00000000          1
H         4.80542093       9.62648450      10.69623977         0.00000000       0.00000000       0.00000000          1
H         4.99817762       9.68538109       6.42268351         0.00000000       0.00000000       0.00000000          1
H        10.02861215       9.47335589       5.76391849         0.00000000       0.00000000       0.00000000          1
H         8.94141817       1.53519707       3.70698916         0.00000000       0.00000000       0.00000000          1
6
pbc=[F, F, F] list_num_par=6 frozen=false iter=109 energy=-0.03230369 Lattice="15.00000000 0.00000000 0.00000000 0.00000000 15.00000000 0.00000000 0.00000000 0.00000000 15.00000000" energy_frozen_part=0.00000000 Properties=species:S:1:pos:R:3:velocities:R:3:Z:I:1
H         6.72413682       7.25662171       6.33424929         0.00000000       0.00000000       0.00000000          1
H         5.58645652      13.74191167       5.07634379         0.00000000       0.00000000       0.00000000          1
H         4.64068173       0.88047298      14.10380436         0.00000000       0.00000000       0.00000000          1
H         3.81148961       8.14259856      11.81048210         0.00000000       0.00000000       0.00000000          1
H         7.66257771       4.73213963       3.63892501         0.00000000       0.00000000       0.00000000          1
H        13.44022279       5.59723178      13.88411100         0.00000000       0.00000000       0.00000000          1
6
pbc=[F, F, F] list_num_par=6 frozen=false iter=119 energy=-0.03495924 Lattice="15.00000000 0.00000000 0.00000000 0.00000000 15.00000000 0.00000000 0.00000000 0.00000000 15.00000000" energy_frozen_part=0.00000000 Properties=species:S:1:pos:R:3:velocities:R:3:Z:I:1
H         2.76517176       5.91178365      11.82520244         0.00000000       0.00000000       0.00000000          1
H         5.45744255       3.54743098      14.22510505         0.00000000       0.00000000       0.00000000          1
H        14.25686567       1.67924098      10.82206324         0.00000000       0.00000000       0.00000000          1
H         0.79394852       8.44687025      14.37352339         0.00000000       0.00000000       0.00000000          1
H        10.19448847       2.45114160       2.88028574         0.00000000       0.00000000       0.00000000          1
H        10.95271272      11.20234755       9.07512950         0.00000000       0.00000000       0.00000000          1
6
pbc=[F, F, F] list_num_par=6 frozen=false iter=129 energy=-0.03886783 Lattice="15.00000000 0.00000000 0.00000000 0.00000000 15.00000000 0.00000000 0.00000000 0.00000000 15.00000000" energy_frozen_part=0.00000000 Properties=species:S:1:pos:R:3:velocities:R:3:Z:I:1
H         7.57410979       6.49454466       7.80113208         0.00000000       0.00000000       0.00000000          1
H        11.19976555      14.44019031       4.58393877         0.00000000       0.00000000       0.00000000          1
H        10.61492732       1.08559868       8.20064138         0.00000000       0.00000000       0.00000000          1
H         6.69177199       0.74524017      13.28997281         0.00000000       0.00000000       0.00000000          1
H         9.85687992       4.43635696       1.93591565         0.00000000       0.00000000       0.00000000          1
H         7.21835020       7.11117247       2.50642746         0.00000000       0.00000000       0.00000000          1
6
pbc=[F, F, F] list_num_par=6 frozen=false iter=139 energy=-0.04252805 Lattice="15.00000000 0.00000000 0.00000000 0.00000000 15.00000000 0.00000000 0.00000000 0.00000000 15.00000000" energy_frozen_part=0.00000000 Properties=species:S:1:pos:R:3:velocities:R:3:Z:I:1
H         4.03919490      10.81551649      11.51005047         0.00000000       0.00000000       0.00000000          1
H        14.29854507       9.16380232      13.33816622         0.00000000       0.00000000       0.00000000          1
H         7.80735510       5.51421491       2.11138428         0.00000000       0.00000000       0.00000000          1
H         3.61898078       2.58931524       9.66661081         0.00000000       0.00000000       0.00000000          1
H        10.97077537       5.30248750       6.93337281         0.00000000       0.00000000       0.00000000          1
H         9.10450280       8.32066353       0.23920745         0.00000000       0.00000000       0.00000000          1
6
pbc=[F, F, F] list_num_par=6 frozen=false iter=149 energy=-0.04949229 Lattice="15.00000000 0.00000000 0.00000000 0.00000000 15.00000000 0.00000000 0.00000000 0.00000000 15.00000000" energy_frozen_part=0.00000000 Properties=species:S:1:pos:R:3:velocities:R:3:Z:I:1
H        10.74512645      10.45284793       3.23408054         0.00000000       0.00000000       0.00000000          1
H        13.53441593      14.02281463      14.72266163         0.00000000       0.00000000       0.00000000          1
H         9.32927206      10.30017861       0.04152734         0.00000000       0.00000000       0.00000000          1
H         6.62725265       0.80578838       2.30469249         0.00000000       0.00000000       0.00000000          1
H         0.95205123      14.60478847      11.81146557         0.00000000       0.00000000       0.00000000          1
H         4.07123407       9.81373618       2.63855423         0.00000000       0.00000000       0.00000000          1
6
pbc=[F, F, F] list_num_par=6 frozen=false iter=159 energy=-0.05377773 Lattice="15.00000000 0.00000000 0.00000000 0.00000000 15.00000000 0.00000000 0.00000000 0.00000000 15.00000000" energy_frozen_part=0.00000000 Properties=species:S:1:pos:R:3:velocities:R:3:Z:I:1
H         5.03281696      14.14158335       3.41007316         0.00000000       0.00000000       0.00000000          1
H         8.97169140       9.39146937       7.94318035         0.00000000       0.00000000       0.00000000          1
H         1.02036526       6.67027389      11.11560734         0.00000000       0.00000000       0.00000000          1
H         4.17142271       6.43498978       4.18610411         0.00000000       0.00000000       0.00000000          1
H         3.77909780       5.21353065      12.53113244         0.00000000       0.00000000       0.00000000          1
H        11.87811688       0.75982782       4.42265228         0.00000000       0.00000000       0.00000000          1
6
pbc=[F, F, F] list_num_par=6 frozen=false iter=169 energy=-0.05761128 Lattice="15.00000000 0.00000000 0.00000000 0.00000000 15.00000000 0.00000000 0.00000000 0.00000000 15.00000000" energy_frozen_part=0.00000000 Properties=species:S:1:pos:R:3:velocities:R:3:Z:I:1
H         9.62894351       9.35775412       7.39340847         0.00000000       0.00000000       0.00000000          1
H         0.69722513       1.63137762       3.12682896         0.00000000       0.00000000       0.00000000          1
H         7.19257667       5.74383364       1.70167416         0.00000000       0.00000000       0.00000000          1
H         6.57315247       9.44939178       5.89254977         0.00000000       0.00000000       0.00000000          1
H         8.83472464      13.52995881      13.51998898         0.00000000       0.00000000       0.00000000          1
H        14.08788744       2.83661810       4.57453852         0.00000000       0.00000000       0.00000000          1
6
pbc=[F, F, F] list_num_par=6 frozen=false iter=179 energy=-0.06494280 Lattice="15.00000000 0.00000000 0.00000000 0.00000000 15.00000000 0.00000000 0.00000000 0.00000000 15.00000000" energy_frozen_part=0.00000000 Properties=species:S:1:pos:R:3:velocities:R:3:Z:I:1
H        11.38211564       0.44761123       4.70909067         0.00000000       0.00000000       0.00000000          1
H         4.15885705      14.04989603       2.86641352         0.00000000       0.00000000       0.00000000          1
H        11.94105304       1.28395373       2.35773180         0.00000000       0.00000000       0.00000000          1
H         2.96166661       7.66564884       7.57451435         0.00000000       0.00000000       0.00000000          1
H         7.57348425       2.45415162       4.82451616         0.00000000       0.00000000       0.00000000          1
H        12.97955057      10.23646446       4.36448609         0.00000000       0.00000000       0.00000000          1
6
pbc=[F, F, F] list_num_par=6 frozen=false iter=189 energy=-0.07369561 Lattice="15.00000000 0.00000000 0.00000000 0.00000000 15.00000000 0.00000000 0.00000000 0.00000000 15.00000000" energy_frozen_part=0.00000000 Properties=species:S:1:pos:R:3:velocities:R:3:Z:I:1
H         7.96794756       5.19575046      12.16831898         0.00000000       0.00000000       0.00000000          1
H         2.83641681      10.52620767      14.34791660         0.00000000       0.00000000       0.00000000          1
H         1.73997487       2.49558196       6.20896610         0.00000000       0.00000000       0.00000000          1
H        13.65115880      13.42503610      10.74959565         0.00000000       0.00000000       0.00000000          1
H        11.97539559      14.88462025       8.44768526         0.00000000       0.00000000       0.00000000          1
H         7.24817068      11.02595539       7.80431925         0.00000000       0.00000000       0.00000000          1
6
pbc=[F, F, F] list_num_par=6 frozen=false iter=199 energy=-0.07709319 Lattice="15.00000000 0.00000000 0.00000000 0.00000000 15.00000000 0.00000000 0.00000000 0.00000000 15.00000000" energy_frozen_part=0.00000000 Properties=species:S:1:pos:R:3:velocities:R:3:Z:I:1
H        13.53381168       8.36727908       9.97220377         0.00000000       0.00000000       0.00000000          1
H         5.08185420       0.94926147       4.30424148         0.00000000       0.00000000       0.00000000          1
H        13.02652138      14.66039173      10.93544397         0.00000000       0.00000000       0.00000000          1
H        10.79595006      13.62931558      12.92555684         0.00000000       0.00000000       0.00000000          1
H         6.78236240       3.19423871      10.58562491         0.00000000       0.00000000       0.00000000          1
H         3.27435704      14.51532704       3.04323440         0.00000000       0.00000000       0.00000000          1
6
pbc=[F, F, F] list_num_par=6 frozen=false iter=209 energy=-0.08231287 Lattice="15.00000000 0.00000000 0.00000000 0.00000000 15.00000000 0.00000000 0.00000000 0.00000000 15.00000000" energy_frozen_part=0.00000000 Properties=species:S:1:pos:R:3:velocities:R:3:Z:I:1
H         9.33125120      12.14156841       6.96925323         0.00000000       0.00000000       0.00000000          1
H         6.18463755       7.93607485       3.66392450         0.00000000       0.00000000       0.00000000          1
H         0.72344047      10.83069660       2.19951813         0.00000000       0.00000000       0.00000000          1
H         5.59602085       3.93796694       7.57785880         0.00000000       0.00000000       0.00000000          1
H        11.79297138      11.88046818      10.39388341         0.00000000       0.00000000       0.00000000          1
H         5.37327769       3.72987158       4.07808426         0.00000000       0.00000000       0.00000000          1
6
pbc=[F, F, F] list_num_par=6 frozen=false iter=219 energy=-0.08677211 Lattice="15.00000000 0.00000000 0.00000000 0.00000000 15.00000000 0.00000000 0.00000000 0.00000000 15.00000000" energy_frozen_part=0.00000000 Properties=species:S:1:pos:R:3:velocities:R:3:Z:I:1
H         1.75718537       6.48425713       0.12262393         0.00000000       0.00000000       0.00000000          1
H         9.72126342       3.26279818       6.04349926         0.00000000       0.00000000       0.00000000          1
H        10.46413538      14.11137900      11.70177181         0.00000000       0.00000000       0.00000000          1
H         3.41914536       1.84664721       8.77284719         0.00000000       0.00000000       0.00000000          1
H         0.48676898       2.23831240      10.01069914         0.00000000       0.00000000       0.00000000          1
H         5.22339495       0.50491726      12.52220375         0.00000000       0.00000000       0.00000000          1
6
pbc=[F, F, F] list_num_par=6 frozen=false iter=229 energy=-0.09227826 Lattice="15.00000000 0.00000000 0.00000000 0.00000000 15.00000000 0.00000000 0.00000000 0.00000000 15.00000000" energy_frozen_part=0.00000000 Properties=species:S:1:pos:R:3:velocities:R:3:Z:I:1
H        14.68103953       4.93771440       6.73567387         0.00000000       0.00000000       0.00000000          1
H         8.23826040       8.48236626      14.55904760         0.00000000       0.00000000       0.00000000          1
H         4.89171578      10.47566483       7.40689536         0.00000000       0.00000000       0.00000000          1
H        14.33164221       6.67623591       4.33141111         0.00000000       0.00000000       0.00000000          1
H         0.98596637       3.51197551       0.04411509         0.00000000       0.00000000       0.00000000          1
H         1.53146050      10.26125043      12.85513184         0.00000000       0.00000000       0.00000000          1
6
pbc=[F, F, F] list_num_par=6 frozen=false iter=239 energy=-0.09448375 Lattice="15.00000000 0.00000000 0.00000000 0.00000000 15.00000000 0.00000000 0.00000000 0.00000000 15.00000000" energy_frozen_part=0.00000000 Properties=species:S:1:pos:R:3:velocities:R:3:Z:I:1
H         5.32404134      14.70828574       1.95091372         0.00000000       0.00000000       0.00000000          1
H         7.08920320       6.92505820      11.68896696         0.00000000       0.00000000       0.00000000          1
H         2.78786684       2.31705890      12.84147133         0.00000000       0.00000000       0.00000000          1
H         0.76295958       4.81139827       6.68070076         0.00000000       0.00000000       0.00000000          1
H         0.68051244       2.65024527      10.58339554         0.00000000       0.00000000       0.00000000          1
H        11.94316905      13.61398347       2.59888762         0.00000000       0.00000000       0.00000000          1
6
pbc=[F, F, F] list_num_par=6 frozen=false iter=249 energy=-0.09760891 Lattice="15.00000000 0.00000000 0.00000000 0.00000000 15.00000000 0.00000000 0.00000000 0.00000000 15.00000000" energy_frozen_part=0.00000000 Properties=species:S:1:pos:R:3:velocities:R:3:Z:I:1
H        10.04613455       2.19849613       3.63780788         0.00000000       0.00000000       0.00000000          1
H         7.08482585       9.49839958       5.89089936         0.00000000       0.00000000       0.00000000          1
H         6.82728395       7.38462888       0.46740122         0.00000000       0.00000000       0.00000000          1
H         1.02647138       3.05663370       7.07893605         0.00000000       0.00000000       0.00000000          1
H         5.79388361      11.46740802       2.70946832         0.00000000       0.00000000       0.00000000          1
H         4.53634516      14.40744449       3.57760387         0.00000000       0.00000000       0.00000000          1
6
pbc=[F, F, F] list_num_par=6 frozen=false iter=259 energy=-0.10091578 Lattice="15.00000000 0.00000000 0.00000000 0.00000000 15.00000000 0.00000000 0.00000000 0.00000000 15.00000000" energy_frozen_part=0.00000000 Properties=species:S:1:pos:R:3:velocities:R:3:Z:I:1
H        11.94891956       4.34442765      13.44874047         0.00000000       0.00000000       0.00000000          1
H         3.92631365       7.35405682      12.53823770         0.00000000       0.00000000       0.00000000          1
H        13.33001648       9.80092719       1.31382192         0.00000000       0.00000000       0.00000000          1
H        14.61426516      11.60246757       3.82648555         0.00000000       0.00000000       0.00000000          1
H        10.03597541       1.46419289      12.69023761         0.00000000       0.00000000       0.00000000          1
H         4.40569330       2.59088706       0.65024091         0.00000000       0.00000000       0.00000000          1
6
pbc=[F, F, F] list_num_par=6 frozen=false iter=269 energy=-0.10276040 Lattice="15.00000000 0.00000000 0.00000000 0.00000000 15.00000000 0.00000000 0.00000000 0.00000000 15.00000000" energy_frozen_part=0.00000000 Properties=species:S:1:pos:R:3:velocities:R:3:Z:I:1
H         1.31609254       1.69543213       7.45627431         0.00000000       0.00000000       0.00000000          1
H         8.94465768       6.50060155       3.22810435         0.00000000       0.00000000       0.00000000          1
H        12.24877661      14.79160085      10.31375701         0.00000000       0.00000000       0.00000000          1
H         9.45299012       2.29355038       9.32947347         0.00000000       0.00000000       0.00000000          1
H        11.38309305       2.07760081       0.16624850         0.00000000       0.00000000       0.00000000          1
H        11.70700536       1.52616606       7.92551088         0.00000000       0.00000000       0.00000000          1
6
pbc=[F, F, F] list_num_par=6 frozen=false iter=279 energy=-0.10517503 Lattice="15.00000000 0.00000000 0.00000000 0.00000000 15.00000000 0.00000000 0.00000000 0.00000000 15.00000000" energy_frozen_part=0.00000000 Properties=species:S:1:pos:R:3:velocities:R:3:Z:I:1
H         4.03007103       7.69535901       4.62152309         0.00000000       0.00000000       0.00000000          1
H         0.44678160       4.69182471      12.92576104         0.00000000       0.00000000       0.00000000          1
H         4.07451871       0.42399889       9.53410031         0.00000000       0.00000000       0.00000000          1
H         2.33572992      12.71410285      12.57890777         0.00000000       0.00000000       0.00000000          1
H         3.48734788       1.92238518       6.51273263         0.00000000       0.00000000       0.00000000          1
H         1.29482207       3.18966357       4.07060801         0.00000000       0.00000000       0.00000000          1
6
pbc=[F, F, F] list_num_par=6 frozen=false iter=289 energy=-0.10766673 Lattice="15.00000000 0.00000000 0.00000000 0.00000000 15.00000000 0.00000000 0.00000000 0.00000000 15.00000000" energy_frozen_part=0.00000000 Properties=species:S:1:pos:R:3:velocities:R:3:Z:I:1
H         6.65842331      13.37582882      10.18294549         0.00000000       0.00000000       0.00000000          1
H         5.65070086       3.75558474       1.64472786         0.00000000       0.00000000       0.00000000          1
H         2.73424513       0.75710801       3.16911686         0.00000000       0.00000000       0.00000000          1
H         0.71088686      10.85764213      13.12260642         0.00000000       0.00000000       0.00000000          1
H         4.16054665       1.17637760       5.76938630         0.00000000       0.00000000       0.00000000          1
H        11.96815889       6.45885334      12.62856103         0.00000000       0.00000000       0.00000000          1
6
pbc=[F, F, F] list_num_par=6 frozen=false iter=299 energy=-0.11115338 Lattice="15.00000000 0.00000000 0.00000000 0.00000000 15.00000000 0.00000000 0.00000000 0.00000000 15.00000000" energy_frozen_part=0.00000000 Properties=species:S:1:pos:R:3:velocities:R:3:Z:I:1
H         6.80975995       7.21635569       8.18420489         0.00000000       0.00000000       0.00000000          1
H         1.18809872       1.37258887       3.71353012         0.00000000       0.00000000       0.00000000          1
H         5.25812665      12.17594266      11.77237837         0.00000000       0.00000000       0.00000000          1
H        11.42033098       6.43801603       5.72954602         0.00000000       0.00000000       0.00000000          1
H         4.24403299       7.98452411       6.33095589         0.00000000       0.00000000       0.00000000          1
H         9.29519937       9.73759300       5.32953527         0.00000000       0.00000000       0.00000000          1
6
pbc=[F, F, F] list_num_par=6 frozen=false iter=309 energy=-0.11365012 Lattice="15.00000000 0.00000000 0.00000000 0.00000000 15.00000000 0.00000000 0.00000000 0.00000000 15.00000000" energy_frozen_part=0.00000000 Properties=species:S:1:pos:R:3:velocities:R:3:Z:I:1
H         1.94680834       4.97333818       5.15457037         0.00000000       0.00000000       0.00000000          1
H         9.65334574       3.39069330       9.33499877         0.00000000       0.00000000       0.00000000          1