6
pbc=[F, F, F] list_num_par=6 frozen=false iter=9 energy=222.07168673 Lattice="15.00000000 0.00000000 0.00000000 0.00000000 15.00000000 0.00000000 0.00000000 0.00000000 15.00000000" energy_frozen_part=0.00000000 Properties=species:S:1:pos:R:3:velocities:R:3:Z:I:1
H        14.24847968       1.02109675       6.61750276         0.00000000       0.00000000       0.00000000          1
H         8.55611537       1.08634501       6.81766154         0.00000000       0.00000000       0.00000000          1
H         3.88066012      12.60485749       3.19975434         0.00000000       0.00000000       0.00000000          1
H        12.46506684       0.12808124       9.66095453         0.00000000       0.00000000       0.00000000          1
H        13.22474855       1.11950810      10.43849277         0.00000000       0.00000000       0.00000000          1
H         0.95971218       5.50085469       8.32286825         0.00000000       0.00000000       0.00000000          1
6
pbc=[F, F, F] list_num_par=6 frozen=false iter=19 energy=2.80721656 Lattice="15.00000000 0.00000000 0.00000000 0.00000000 15.00000000 0.00000000 0.00000000 0.00000000 15.00000000" energy_frozen_part=0.00000000 Properties=species:S:1:pos:R:3:velocities:R:3:Z:I:1
H         2.73313638       1.49710891       5.76814635         0.00000000       0.00000000       0.00000000          1
H         1.90205679       4.58673928       4.52209218         0.00000000       0.00000000       0.00000000          1
H         0.54538913       5.30987946       6.32247345         0.00000000       0.00000000       0.00000000          1
H         9.33818786      10.34493606       4.17226993         0.00000000       0.00000000       0.00000000          1
H        11.95939620       4.17803748       4.43505525         0.00000000       0.00000000       0.00000000          1
H         9.94621547       8.38328618       4.40694336         0.00000000       0.00000000       0.00000000          1
6
pbc=[F, F, F] list_num_par=6 frozen=false iter=29 energy=0.39402173 Lattice="15.00000000 0.00000000 0.00000000 0.00000000 15.00000000 0.00000000 0.00000000 0.00000000 15.00000000" energy_frozen_part=0.00000000 Properties=species:S:1:pos:R:3:velocities:R:3:Z:I:1
H         8.03232536      10.70020628       5.93411465         0.00000000       0.00000000       0.00000000          1
H         3.52097474       6.59828879      11.85415825         0.00000000       0.00000000       0.00000000          1
H        14.06181477       3.29856963      10.63372598         0.00000000       0.00000000       0.00000000          1
H         5.83123951       7.29525253       2.31876088         0.00000000       0.00000000       0.00000000          1
H        10.24213796      10.33098057       5.38291040         0.00000000       0.00000000       0.00000000          1
H        12.53770560       4.94760354       0.03234582         0.00000000       0.00000000       0.00000000          1
6
pbc=[F, F, F] list_num_par=6 frozen=false iter=39 energy=-0.00175566 Lattice="15.00000000 0.00000000 0.00000000 0.00000000 15.00000000 0.00000000 0.00000000 0.00000000 15.00000000" energy_frozen_part=0.00000000 Properties=species:S:1:pos:R:3:velocities:R:3:Z:I:1
H         6.91915518       2.56935113      13.05267230         0.00000000       0.00000000       0.00000000          1
H        12.85569089       0.57781617       8.73214788         0.00000000       0.00000000       0.00000000          1
H        13.14454822      12.23818475       6.32561498         0.00000000       0.00000000       0.00000000          1
H        10.22102037       9.77357399      12.39291400         0.00000000       0.00000000       0.00000000          1
H         2.41355092       3.75123188       2.13131238         0.00000000       0.00000000       0.00000000          1
H         3.34131889      10.82409063       4.49964731         0.00000000       0.00000000       0.00000000          1
6
pbc=[F, F, F] list_num_par=6 frozen=false iter=49 energy=-0.00356749 Lattice="15.00000000 0.00000000 0.00000000 0.00000000 15.00000000 0.00000000 0.00000000 0.00000000 15.00000000" energy_frozen_part=0.00000000 Properties=species:S:1:pos:R:3:velocities:R:3:Z:I:1
H         5.70015813       2.93411412       1.49004590         0.00000000       0.00000000       0.00000000          1
H        14.27925599      14.12616027       1.22120580         0.00000000       0.00000000       0.00000000          1
H         2.87945758      10.29356170       3.97656833         0.00000000       0.00000000       0.00000000          1
H        13.89363458       0.12812531       4.32079871         0.00000000       0.00000000       0.00000000          1
H         5.40924010       9.33885247      10.19384072         0.00000000       0.00000000       0.00000000          1
H        13.42557558       0.30740876      10.12662008         0.00000000       0.00000000       0.00000000          1
6
pbc=[F, F, F] list_num_par=6 frozen=false iter=59 energy=-0.00585004 Lattice="15.00000000 0.00000000 0.00000000 0.00000000 15.00000000 0.00000000 0.00000000 0.00000000 15.00000000" energy_frozen_part=0.00000000 Properties=species:S:1:pos:R:3:velocities:R:3:Z:I:1
H         3.98887938       0.08402283       6.33930658         0.00000000       0.00000000       0.00000000          1
H         6.61937381      13.60968500       7.90398302         0.00000000       0.00000000       0.00000000          1
H        13.13522322       4.48763308       6.78528164         0.00000000       0.00000000       0.00000000          1
H         5.12117354       0.41853140      13.69248669         0.00000000       0.00000000       0.00000000          1
H        11.45084909       4.18127023       0.95699017         0.00000000       0.00000000       0.00000000          1
H         5.42826718       0.82050574       0.87437714         0.00000000       0.00000000       0.00000000          1
6
pbc=[F, F, F] list_num_par=6 frozen=false iter=69 energy=-0.00919747 Lattice="15.00000000 0.00000000 0.00000000 0.00000000 15.00000000 0.00000000 0.00000000 0.00000000 15.00000000" energy_frozen_part=0.00000000 Properties=species:S:1:pos:R:3:velocities:R:3:Z:I:1
H         4.54723390       7.80140380      14.02497625         0.00000000       0.00000000       0.00000000          1
H        10.38101302       1.97857807       3.04067646         0.00000000       0.00000000       0.00000000          1
H         4.15330856       0.30745609       3.01816570         0.00000000       0.00000000       0.00000000          1
H         2.12173484      10.00146353       2.37835119         0.00000000       0.00000000       0.00000000          1
H        14.32188471      13.74418358       2.92934608         0.00000000       0.00000000       0.00000000          1
H         4.77587975       9.93687325       6.38795060         0.00000000       0.00000000       0.00000000          1
6
pbc=[F, F, F] list_num_par=6 frozen=false iter=79 energy=-0.01243635 Lattice="15.00000000 0.00000000 0.00000000 0.00000000 15.00000000 0.00000000 0.00000000 0.00000000 15.00000000" energy_frozen_part=0.00000000 Properties=species:S:1:pos:R:3:velocities:R:3:Z:I:1
H         8.64955933       5.27248507       7.91247358         0.00000000       0.00000000       0.00000000          1
H         9.35146778      10.85147678      14.09968519         0.00000000       0.00000000       0.00000000          1
H        10.61635817       9.63477666       3.34894334         0.00000000       0.00000000       0.00000000          1
H         5.30654619       2.52015868      11.82883096         0.00000000       0.00000000       0.00000000          1
H         7.35097135       1.67607493       1.09365083         0.00000000       0.00000000       0.00000000          1
H        13.20789045       4.33304561       9.00303857         0.00000000       0.00000000       0.00000000          1
6
pbc=[F, F, F] list_num_par=6 frozen=false iter=89 energy=-0.01818687 Lattice="15.00000000 0.00000000 0.00000000 0.00000000 15.00000000 0.00000000 0.00000000 0.00000000 15.00000000" energy_frozen_part=0.00000000 Properties=species:S:1:pos:R:3:velocities:R:3:Z:I:1
H         0.14883629      10.12430971       0.68218667         0.00000000       0.00000000       0.00000000          1
H         0.89643558       4.82858298       2.47222763         0.00000000       0.00000000       0.00000000          1
H         7.27974379      13.28555090       8.23563095         0.00000000       0.00000000       0.00000000          1
H         1.84272416      10.10507459      11.14862028         0.00000000       0.00000000       0.00000000          1
H         5.08500151       3.14446210      12.32807983         0.00000000       0.00000000       0.00000000          1
H         1.45047646      13.58261628       2.99629538         0.00000000       0.00000000       0.00000000          1
6
pbc=[F, F, F] list_num_par=6 frozen=false iter=99 energy=-0.02159536 Lattice="15.00000000 0.00000000 0.00000000 0.00000000 15.00000000 0.00000000 0.00000000 0.00000000 15.00000000" energy_frozen_part=0.00000000 Properties=species:S:1:pos:R:3:velocities:R:3:Z:I:1
H         8.33214297       6.98516032      14.14581108         0.00000000       0.00000000       0.00000000          1
H         7.63299731      13.38576353       2.19004456         0.00000000       0.00000000       0.00000000          1
H         2.78848025       1.89612595      12.90199072         0.00000000       0.00000000       0.00000000          1
H        10.29362162      11.82019570       7.57103583         0.00000000       0.00000000       0.00000000          1
H         6.31455517       0.73469041       0.29971540         0.00000000       0.00000000       0.00000000          1
H        11.82154741       9.50529518       4.46208453         0.00000000       0.00000000       0.00000000          1
6
pbc=[F, F, F] list_num_par=6 frozen=false iter=109 energy=-0.02496695 Lattice="15.00000000 0.00000000 0.00000000 0.00000000 15.00000000 0.00000000 0.00000000 0.00000000 15.00000000" energy_frozen_part=0.00000000 Properties=species:S:1:pos:R:3:velocities:R:3:Z:I:1
H         4.71541300       8.62833576       3.42468273         0.00000000       0.00000000       0.00000000          1
H        10.39957783       6.12791553      11.21536957         0.00000000       0.00000000       0.00000000          1
H         1.32187227       3.02457339       6.83478984         0.00000000       0.00000000       0.00000000          1
H         3.15784111      11.97313124       0.83018461         0.00000000       0.00000000       0.00000000          1
H        14.22057585       8.53299631      12.55503541         0.00000000       0.00000000       0.00000000          1
H         1.12702649      11.16793588       6.86155922         0.00000000       0.00000000       0.00000000          1
6
pbc=[F, F, F] list_num_par=6 frozen=false iter=119 energy=-0.03243281 Lattice="15.00000000 0.00000000 0.00000000 0.00000000 15.00000000 0.00000000 0.00000000 0.00000000 15.00000000" energy_frozen_part=0.00000000 Properties=species:S:1:pos:R:3:velocities:R:3:Z:I:1
H         4.11078803       5.73440057      10.31370548         0.00000000       0.00000000       0.00000000          1
H         5.59848617       2.91210102       5.09816364         0.00000000       0.00000000       0.00000000          1
H        12.52566075       1.98225494      14.58153021         0.00000000       0.00000000       0.00000000          1
H         0.63284694       6.80962351       4.26368614         0.00000000       0.00000000       0.00000000          1
H         5.68327726       7.20622323       6.50830713         0.00000000       0.00000000       0.00000000          1
H        10.82988824       4.71504929       0.77849872         0.00000000       0.00000000       0.00000000          1
6
pbc=[F, F, F] list_num_par=6 frozen=false iter=129 energy=-0.03571770 Lattice="15.00000000 0.00000000 0.00000000 0.00000000 15.00000000 0.00000000 0.00000000 0.00000000 15.00000000" energy_frozen_part=0.00000000 Properties=species:S:1:pos:R:3:velocities:R:3:Z:I:1
H         3.44641491      10.06316449       6.79461726         0.00000000       0.00000000       0.00000000          1
H         5.89537061       6.90846325      10.29821874         0.00000000       0.00000000       0.00000000          1
H        12.92495691      13.00666931       6.18838193         0.00000000       0.00000000       0.00000000          1
H         1.69084514       3.26015427       1.37131851         0.00000000       0.00000000       0.00000000          1
H         6.61816363      14.66710089      10.35796026         0.00000000       0.00000000       0.00000000          1
H        11.33335990       9.60007016       5.51494502         0.00000000       0.00000000       0.00000000          1
6
pbc=[F, F, F] list_num_par=6 frozen=false iter=139 energy=-0.04176067 Lattice="15.00000000 0.00000000 0.00000000 0.00000000 15.00000000 0.00000000 0.00000000 0.00000000 15.00000000" energy_frozen_part=0.00000000 Properties=species:S:1:pos:R:3:velocities:R:3:Z:I:1
H         2.23094650       5.67222985       4.51678176         0.00000000       0.00000000       0.00000000          1
H         5.67729200       1.59297609       3.90646260         0.00000000       0.00000000       0.00000000          1
H         1.64371736       1.29552776       4.47627332         0.00000000       0.00000000       0.00000000          1
H         0.57510721       7.07917821       9.53728150         0.00000000       0.00000000       0.00000000          1
H         8.71738816       8.06127524       9.74819455         0.00000000       0.00000000       0.00000000          1
H        13.41246638       5.18600454      13.41966474         0.00000000       0.00000000       0.00000000          1
6
pbc=[F, F, F] list_num_par=6 frozen=false iter=149 energy=-0.04671484 Lattice="15.00000000 0.00000000 0.00000000 0.00000000 15.00000000 0.00000000 0.00000000 0.00000000 15.00000000" energy_frozen_part=0.00000000 Properties=species:S:1:pos:R:3:velocities:R:3:Z:I:1
H         7.09779169      12.67084731       2.57502709         0.00000000       0.00000000       0.00000000          1
H         0.25935605       3.54291021       6.89923361         0.00000000       0.00000000       0.00000000          1
H         3.70423903       4.14617143      12.67957090         0.00000000       0.00000000       0.00000000          1
H        13.38341015       4.72804750       2.13914904         0.00000000       0.00000000       0.00000000          1
H         5.98808645      13.88181577       5.67041962         0.00000000       0.00000000       0.00000000          1
H        12.61056162       3.87570078      13.03625865         0.00000000       0.00000000       0.00000000          1
6
pbc=[F, F, F] list_num_par=6 frozen=false iter=159 energy=-0.05151171 Lattice="15.00000000 0.00000000 0.00000000 0.00000000 15.00000000 0.00000000 0.00000000 0.00000000 15.00000000" energy_frozen_part=0.00000000 Properties=species:S:1:pos:R:3:velocities:R:3:Z:I:1
H         1.91942328      12.62241870       8.76792048         0.00000000       0.00000000       0.00000000          1
H         4.62897799       2.65894965      11.35778321         0.00000000       0.00000000       0.00000000          1
H         5.42582263       2.26244011       1.16721592         0.00000000       0.00000000       0.00000000          1
H         2.85549525       6.59711330       4.09087561         0.00000000       0.00000000       0.00000000          1
H         5.81181977       6.11889132       1.01887133         0.00000000       0.00000000       0.00000000          1
H         0.14530218       4.56179073      10.37240646         0.00000000       0.00000000       0.00000000          1
6
pbc=[F, F, F] list_num_par=6 frozen=false iter=169 energy=-0.05589207 Lattice="15.00000000 0.00000000 0.00000000 0.00000000 15.00000000 0.00000000 0.00000000 0.00000000 15.00000000" energy_frozen_part=0.00000000 Properties=species:S:1:pos:R:3:velocities:R:3:Z:I:1
H         7.74301301      10.59663784       6.25144464         0.00000000       0.00000000       0.00000000          1
H         4.70276558       2.64487617       5.58300050         0.00000000       0.00000000       0.00000000          1
H        14.88823134       5.45947783      10.83141859         0.00000000       0.00000000       0.00000000          1
H        13.88854697      10.35106585       8.02079202         0.00000000       0.00000000       0.00000000          1
H        10.42149512      12.76645415       7.51623535         0.00000000       0.00000000       0.00000000          1
H         9.98081919       0.11511249      14.38969041         0.00000000       0.00000000       0.00000000          1
6
pbc=[F, F, F] list_num_par=6 frozen=false iter=179 energy=-0.05995450 Lattice="15.00000000 0.00000000 0.00000000 0.00000000 15.00000000 0.00000000 0.00000000 0.00000000 15.00000000" energy_frozen_part=0.00000000 Properties=species:S:1:pos:R:3:velocities:R:3:Z:I:1
H         0.19737232      14.60522240      13.53189100         0.00000000       0.00000000       0.00000000          1
H        10.40385611      13.17802007      11.04020894         0.00000000       0.00000000       0.00000000          1
H         7.20812639       9.78634476       7.80550924         0.00000000       0.00000000       0.00000000          1
H         5.30417705      14.58295427      14.27581414         0.00000000       0.00000000       0.00000000          1
H         3.85087805      11.24596720       7.00464768         0.00000000       0.00000000       0.00000000          1
H         1.01486181       9.35554481       9.60824933         0.00000000       0.00000000       0.00000000          1
6
pbc=[F, F, F] list_num_par=6 frozen=false iter=189 energy=-0.06744207 Lattice="15.00000000 0.00000000 0.00000000 0.00000000 15.00000000 0.00000000 0.00000000 0.00000000 15.00000000" energy_frozen_part=0.00000000 Properties=species:S:1:pos:R:3:velocities:R:3:Z:I:1
H         9.05524552       4.82795166      12.74456975         0.00000000       0.00000000       0.00000000          1
H        14.95281895       8.97067137       9.82202567         0.00000000       0.00000000       0.00000000          1
H        10.89949001      10.45773860       7.27509183         0.00000000       0.00000000       0.00000000          1
H         6.91558366       2.07330609      12.50154657         0.00000000       0.00000000       0.00000000          1
H         4.08679282       2.64754894       2.68745750         0.00000000       0.00000000       0.00000000          1
H         7.78074576       2.77419839       4.97195221         0.00000000       0.00000000       0.00000000          1
6
pbc=[F, F, F] list_num_par=6 frozen=false iter=199 energy=-0.07244838 Lattice="15.00000000 0.00000000 0.00000000 0.00000000 15.00000000 0.00000000 0.00000000 0.00000000 15.00000000" energy_frozen_part=0.00000000 Properties=species:S:1:pos:R:3:velocities:R:3:Z:I:1
H         3.04291151      13.82335615       5.46369865         0.00000000       0.00000000       0.00000000          1
H         6.39758477      13.11548492       6.75819161         0.00000000       0.00000000       0.00000000          1
H        11.17775248       7.41294342      13.71728194         0.00000000       0.00000000       0.00000000          1
H         1.47230806       4.53555073       9.07669236         0.00000000       0.00000000       0.00000000          1
H         3.08964760       9.90697215       8.85748903         0.00000000       0.00000000       0.00000000          1
H         9.72730063      10.34698339      11.32127664         0.00000000       0.00000000       0.00000000          1
6
pbc=[F, F, F] list_num_par=6 frozen=false iter=209 energy=-0.07724864 Lattice="15.00000000 0.00000000 0.00000000 0.00000000 15.00000000 0.00000000 0.00000000 0.00000000 15.00000000" energy_frozen_part=0.00000000 Properties=species:S:1:pos:R:3:velocities:R:3:Z:I:1
H         4.17083288       8.69085052      10.70254356         0.00000000       0.00000000       0.00000000          1
H         1.52619239       4.41783950       7.94302669         0.00000000       0.00000000       0.00000000          1
H        11.25103315       3.10261280       3.68458670         0.00000000       0.00000000       0.00000000          1
H        12.06296992       9.54973927      11.77805933         0.00000000       0.00000000       0.00000000          1
H         5.17679765       7.24695737       7.87788744         0.00000000       0.00000000       0.00000000          1
H         6.24113927       1.86620955      10.16924065         0.00000000       0.00000000       0.00000000          1
6
pbc=[F, F, F] list_num_par=6 frozen=false iter=219 energy=-0.08273768 Lattice="15.00000000 0.00000000 0.00000000 0.00000000 15.00000000 0.00000000 0.00000000 0.00000000 15.00000000" energy_frozen_part=0.00000000 Properties=species:S:1:pos:R:3:velocities:R:3:Z:I:1
H        12.60457242       3.26448530       4.72254981         0.00000000       0.00000000       0.00000000          1
H         3.07096653      10.77118965       4.29294330         0.00000000       0.00000000       0.00000000          1
H         1.41943433       8.68895984       8.80829341         0.00000000       0.00000000       0.00000000          1
H         9.43281278      12.99653682       0.34727124         0.00000000       0.00000000       0.00000000          1
H         2.94525370      11.04704657      10.51566576         0.00000000       0.00000000       0.00000000          1
H         3.41936253      14.73131646      12.81689981         0.00000000       0.00000000       0.00000000          1
6
pbc=[F, F, F] list_num_par=6 frozen=false iter=229 energy=-0.08753103 Lattice="15.00000000 0.00000000 0.00000000 0.00000000 15.00000000 0.00000000 0.00000000 0.00000000 15.00000000" energy_frozen_part=0.00000000 Properties=species:S:1:pos:R:3:velocities:R:3:Z:I:1
H         9.24621179       8.64180622      12.19510204         0.00000000       0.00000000       0.00000000          1
H         3.73339057      11.04067096       3.68886482         0.00000000       0.00000000       0.00000000          1
H         8.74039740       2.54747845      12.14638595         0.00000000       0.00000000       0.00000000          1
H         5.12578233      13.39205765       5.06299620         0.00000000       0.00000000       0.00000000          1
H         2.93395785       5.03751228       3.00734764         0.00000000       0.00000000       0.00000000          1
H        12.72894717       1.02730509       5.21404730         0.00000000       0.00000000       0.00000000          1
6
pbc=[F, F, F] list_num_par=6 frozen=false iter=239 energy=-0.09076872 Lattice="15.00000000 0.00000000 0.00000000 0.00000000 15.00000000 0.00000000 0.00000000 0.00000000 15.00000000" energy_frozen_part=0.00000000 Properties=species:S:1:pos:R:3:velocities:R:3:Z:I:1
H        12.48060992       1.07874145       3.42716647         0.00000000       0.00000000       0.00000000          1
H         9.28273805      10.65143062      14.54261407         0.00000000       0.00000000       0.00000000          1
H         0.26390636       7.08841039       1.82049339         0.00000000       0.00000000       0.00000000          1
H         4.49512188       2.96515704      11.38767042         0.00000000       0.00000000       0.00000000          1
H         9.59297330       1.98548034       4.09779801         0.00000000       0.00000000       0.00000000          1
H         1.20507023       4.43291151       8.58921205         0.00000000       0.00000000       0.00000000          1
6
pbc=[F, F, F] list_num_par=6 frozen=false iter=249 energy=-0.09298704 Lattice="15.00000000 0.00000000 0.00000000 0.00000000 15.00000000 0.00000000 0.00000000 0.00000000 15.00000000" energy_frozen_part=0.00000000 Properties=species:S:1:pos:R:3:velocities:R:3:Z:I:1
H         5.53737023      13.28018487       9.69434669         0.00000000       0.00000000       0.00000000          1
H         6.65337436      11.84662737      14.25930390         0.00000000       0.00000000       0.00000000          1
H        10.92818883       4.54378273       3.55530446         0.00000000       0.00000000       0.00000000          1
H         0.46516364       5.29210911       0.09245543         0.00000000       0.00000000       0.00000000          1
H         7.50258461      14.26214789       7.45438197         0.00000000       0.00000000       0.00000000          1
H         9.59392663       1.41804736       6.69332549         0.00000000       0.00000000       0.00000000          1
6
pbc=[F, F, F] list_num_par=6 frozen=false iter=259 energy=-0.09668329 Lattice="15.00000000 0.00000000 0.00000000 0.00000000 15.00000000 0.00000000 0.00000000 0.00000000 15.00000000" energy_frozen_part=0.00000000 Properties=species:S:1:pos:R:3:velocities:R:3:Z:I:1
H        14.35450826      11.54903489       6.86402109         0.00000000       0.00000000       0.00000000          1
H         0.75038623       9.52237624      10.51254182         0.00000000       0.00000000       0.00000000          1
H         1.90671917       2.63774872       0.31749129         0.00000000       0.00000000       0.00000000          1
H         4.59833642       9.47079281      12.19438092         0.00000000       0.00000000       0.00000000          1
H         3.00203082       2.91454834       5.85566224         0.00000000       0.00000000       0.00000000          1
H         4.95126948       2.02539979       0.97682848         0.00000000       0.00000000       0.00000000          1
6
pbc=[F, F, F] list_num_par=6 frozen=false iter=269 energy=-0.10056112 Lattice="15.00000000 0.00000000 0.00000000 0.00000000 15.00000000 0.00000000 0.00000000 0.00000000 15.00000000" energy_frozen_part=0.00000000 Properties=species:S:1:pos:R:3:velocities:R:3:Z:I:1
H         1.64633533      12.26593321       0.66504778         0.00000000       0.00000000       0.00000000          1
H         4.63200460       4.71050476      10.54612543         0.00000000       0.00000000       0.00000000          1
H        14.42728073      14.53579221      12.27947075         0.00000000       0.00000000       0.00000000          1
H        13.97566314       1.57549002       7.86121752         0.00000000       0.00000000       0.00000000          1
H         5.51573421       4.58675497       7.83489808         0.00000000       0.00000000       0.00000000          1
H        12.91749928       3.56579792       1.99077089         0.00000000       0.00000000       0.00000000          1
6
pbc=[F, F, F] list_num_par=6 frozen=false iter=279 energy=-0.10178370 Lattice="15.00000000 0.00000000 0.00000000 0.00000000 15.00000000 0.00000000 0.00000000 0.00000000 15.00000000" energy_frozen_part=0.00000000 Properties=species:S:1:pos:R:3:velocities:R:3:Z:I:1
H         0.39523408       1.54413450       9.09394489         0.00000000       0.00000000       0.00000000          1
H         5.77946793       3.40919047      11.20635563         0.00000000       0.00000000       0.00000000          1
H         1.40570187      13.58482516       3.23817631         0.00000000       0.00000000       0.00000000          1
H        13.13236614       5.07705250      11.67176660         0.00000000       0.00000000       0.00000000          1
H        14.45180453       9.12072651       3.71785563         0.00000000       0.00000000       0.00000000          1
H         7.15893917       1.24784731      12.20373368         0.00000000       0.00000000       0.00000000          1
6
pbc=[F, F, F] list_num_par=6 frozen=false iter=289 energy=-0.10489574 Lattice="15.00000000 0.00000000 0.00000000 0.00000000 15.00000000 0.00000000 0.00000000 0.00000000 15.00000000" energy_frozen_part=0.00000000 Properties=species:S:1:pos:R:3:velocities:R:3:Z:I:1
H        14.85337874       4.22309806       2.64382814         0.00000000       0.00000000       0.00000000          1
H         9.83191483       2.26859574       3.80753790         0.00000000       0.00000000       0.00000000          1
H         7.66689599       3.78715241       3.57268749         0.00000000       0.00000000       0.00000000          1
H        10.15896390       4.47092270       8.02320910         0.00000000       0.00000000       0.00000000          1
H         0.64656059       2.10943410      12.41302404         0.00000000       0.00000000       0.00000000          1
H         9.50341601       4.71567224      13.65502638         0.00000000       0.00000000       0.00000000          1
6
pbc=[F, F, F] list_num_par=6 frozen=false iter=299 energy=-0.10868824 Lattice="15.00000000 0.00000000 0.00000000 0.00000000 15.00000000 0.00000000 0.00000000 0.00000000 15.00000000" energy_frozen_part=0.00000000 Properties=species:S:1:pos:R:3:velocities:R:3:Z:I:1
H         0.05733494       4.85680909       9.57380693         0.00000000       0.00000000       0.00000000          1
H         7.86621479      10.36155907      14.19859696         0.00000000       0.00000000       0.00000000          1
H        12.05000529       6.91398743       0.16884761         0.00000000       0.00000000       0.00000000          1
H         0.65291863       6.68111805       3.93876325         0.00000000       0.00000000       0.00000000          1
H         4.44284537      12.78111154       2.28654376         0.00000000       0.00000000       0.00000000          1
H         1.53965343       3.90618884       7.49538979         0.00000000       0.00000000       0.00000000          1
6
pbc=[F, F, F] list_num_par=6 frozen=false iter=309 energy=-0.11163942 Lattice="15.00000000 0.00000000 0.00000000 0.00000000 15.00000000 0.00000000 0.00000000 0.00000000 15.00000000" energy_frozen_part=0.00000000 Properties=species:S:1:pos:R:3:velocities:R:3:Z:I:1
H         4.28755889      11.94864610       6.60278009         0.00000000       0.00000000       0.00000000          1
H         1.30790721      11.68862456       8.28557991         0.00000000       0.00000000       0.00000000          1