6
pbc=[F, F, F] list_num_par=6 frozen=false iter=9 energy=171.84568280 Lattice="15.00000000 0.00000000 0.00000000 0.00000000 15.00000000 0.00000000 0.00000000 0.00000000 15.00000000" energy_frozen_part=0.00000000 Properties=species:S:1:pos:R:3:velocities:R:3:Z:I:1
H         6.77414117       8.64173459       6.02488558         0.00000000       0.00000000       0.00000000          1
H        10.72330329       6.64989567      13.21095796         0.00000000       0.00000000       0.00000000          1
H         7.78612350       1.80615159       3.81338857         0.00000000       0.00000000       0.00000000          1
H         6.17008858       7.29508695       5.74435072         0.00000000       0.00000000       0.00000000          1
H        14.30123766       7.76333717       0.93032681         0.00000000       0.00000000       0.00000000          1
H        13.52733576       2.45287504       4.69899300         0.00000000       0.00000000       0.00000000          1
6
pbc=[F, F, F] list_num_par=6 frozen=false iter=19 energy=3.64305454 Lattice="15.00000000 0.00000000 0.00000000 0.00000000 15.00000000 0.00000000 0.00000000 0.00000000 15.00000000" energy_frozen_part=0.00000000 Properties=species:S:1:pos:R:3:velocities:R:3:Z:I:1
H         6.15060460      13.84319772       1.49740520         0.00000000       0.00000000       0.00000000          1
H        12.91640831       6.51024358      14.63143865         0.00000000       0.00000000       0.00000000          1
H        14.28672303       7.55835190       2.51128162         0.00000000       0.00000000       0.00000000          1
H        10.15371123       9.57968831      10.08871042         0.00000000       0.00000000       0.00000000          1
H        12.41233086       6.99092025       2.00380967         0.00000000       0.00000000       0.00000000          1
H        10.11830280       1.53773176      14.91942089         0.00000000       0.00000000       0.00000000          1
6
pbc=[F, F, F] list_num_par=6 frozen=false iter=29 energy=-0.00177069 Lattice="15.00000000 0.00000000 0.00000000 0.00000000 15.00000000 0.00000000 0.00000000 0.00000000 15.00000000" energy_frozen_part=0.00000000 Properties=species:S:1:pos:R:3:velocities:R:3:Z:I:1
H         1.77988556       3.96751667       3.42315918         0.00000000       0.00000000       0.00000000          1
H        10.49825131      11.82228538       3.94140041         0.00000000       0.00000000       0.00000000          1
H        13.08466919       0.54854938       2.52918246         0.00000000       0.00000000       0.00000000          1
H         5.94563403      13.90550298      14.56241857         0.00000000       0.00000000       0.00000000          1
H         8.58385747       6.17143810      11.62755643         0.00000000       0.00000000       0.00000000          1
H        14.51340700       4.88292172      12.87408474         0.00000000       0.00000000       0.00000000          1
6
pbc=[F, F, F] list_num_par=6 frozen=false iter=39 energy=-0.00629474 Lattice="15.00000000 0.00000000 0.00000000 0.00000000 15.00000000 0.00000000 0.00000000 0.00000000 15.00000000" energy_frozen_part=0.00000000 Properties=species:S:1:pos:R:3:velocities:R:3:Z:I:1
H         9.37337932       8.06577529       4.45557204         0.00000000       0.00000000       0.00000000          1
H        12.44086490       3.16901882       3.90284649         0.00000000       0.00000000       0.00000000          1
H         1.67004760      13.52787204      12.16153336         0.00000000       0.00000000       0.00000000          1
H         3.52993526       1.26429136       2.39892300         0.00000000       0.00000000       0.00000000          1
H         7.62155293      11.98382835      10.91289133         0.00000000       0.00000000       0.00000000          1
H         4.59722155       9.14333276       0.68200578         0.00000000       0.00000000       0.00000000          1
6
pbc=[F, F, F] list_num_par=6 frozen=false iter=49 energy=-0.00865017 Lattice="15.00000000 0.00000000 0.00000000 0.00000000 15.00000000 0.00000000 0.00000000 0.00000000 15.00000000" energy_frozen_part=0.00000000 Properties=species:S:1:pos:R:3:velocities:R:3:Z:I:1
H         5.46226046       0.93671618      11.25677500         0.00000000       0.00000000       0.00000000          1
H        13.75178385      12.90619957       4.85898606         0.00000000       0.00000000       0.00000000          1
H         1.18318944      10.78163480       5.74935978         0.00000000       0.00000000       0.00000000          1
H        11.30121120      12.98172104       0.83718343         0.00000000       0.00000000       0.00000000          1
H         4.79430567       3.54411734       0.01201272         0.00000000       0.00000000       0.00000000          1
H        14.86051826       1.51430985       7.02134968         0.00000000       0.00000000       0.00000000          1
6
pbc=[F, F, F] list_num_par=6 frozen=false iter=59 energy=-0.01299868 Lattice="15.00000000 0.00000000 0.00000000 0.00000000 15.00000000 0.00000000 0.00000000 0.00000000 15.00000000" energy_frozen_part=0.00000000 Properties=species:S:1:pos:R:3:velocities:R:3:Z:I:1
H        11.99413260      13.26691576      12.26851594         0.00000000       0.00000000       0.00000000          1
H        11.75128826       7.93250791      13.58305786         0.00000000       0.00000000       0.00000000          1
H        10.24041895       4.44141983       4.90005139         0.00000000       0.00000000       0.00000000          1
H         4.69475204       3.00179608       0.74838276         0.00000000       0.00000000       0.00000000          1
H        14.37529481       3.99867829       7.11908500         0.00000000       0.00000000       0.00000000          1
H        13.72436801      13.73116974       2.34791258         0.00000000       0.00000000       0.00000000          1
6
pbc=[F, F, F] list_num_par=6 frozen=false iter=69 energy=-0.01559480 Lattice="15.00000000 0.00000000 0.00000000 0.00000000 15.00000000 0.00000000 0.00000000 0.00000000 15.00000000" energy_frozen_part=0.00000000 Properties=species:S:1:pos:R:3:velocities:R:3:Z:I:1
H         2.94830548       9.38616572       8.63140970         0.00000000       0.00000000       0.00000000          1
H         2.80276427       2.30952717      14.29419436         0.00000000       0.00000000       0.00000000          1
H         2.20659129       4.86186838       9.65978716         0.00000000       0.00000000       0.00000000          1
H         6.57817221       2.92179406       1.30682741         0.00000000       0.00000000       0.00000000          1
H         9.89593057       2.30047012       6.23021491         0.00000000       0.00000000       0.00000000          1
H        13.87964564       7.79846862       2.20153229         0.00000000       0.00000000       0.00000000          1
6
pbc=[F, F, F] list_num_par=6 frozen=false iter=79 energy=-0.01919152 Lattice="15.00000000 0.00000000 0.00000000 0.00000000 15.00000000 0.00000000 0.00000000 0.00000000 15.00000000" energy_frozen_part=0.00000000 Properties=species:S:1:pos:R:3:velocities:R:3:Z:I:1
H        10.50079634       8.35283953       8.84221462         0.00000000       0.00000000       0.00000000          1
H         5.29677232       4.19432309       2.92604057         0.00000000       0.00000000       0.00000000          1
H        12.35296289       8.60856468      10.51187649         0.00000000       0.00000000       0.00000000          1
H         0.79408670      11.94827149       9.36668224         0.00000000       0.00000000       0.00000000          1
H         2.26841667      13.25063521       5.35038039         0.00000000       0.00000000       0.00000000          1
H        14.13876680       7.15668430       3.04453539         0.00000000       0.00000000       0.00000000          1
6
pbc=[F, F, F] list_num_par=6 frozen=false iter=89 energy=-0.02681413 Lattice="15.00000000 0.00000000 0.00000000 0.00000000 15.00000000 0.00000000 0.00000000 0.00000000 15.00000000" energy_frozen_part=0.00000000 Properties=species:S:1:pos:R:3:velocities:R:3:Z:I:1
H         2.59894247       7.31906666       5.23317712         0.00000000       0.00000000       0.00000000          1
H         2.00281304       3.75587765       3.15967918         0.00000000       0.00000000       0.00000000          1
H        13.40428573       3.17018543       9.48806956         0.00000000       0.00000000       0.00000000          1
H         2.50824254       8.80041958       9.84950683         0.00000000       0.00000000       0.00000000          1
H         0.82119932      11.87026937       1.04412084         0.00000000       0.00000000       0.00000000          1
H        11.89472191       0.12944906       1.68863870         0.00000000       0.00000000       0.00000000          1
6
pbc=[F, F, F] list_num_par=6 frozen=false iter=99 energy=-0.03242276 Lattice="15.00000000 0.00000000 0.00000000 0.00000000 15.00000000 0.00000000 0.00000000 0.00000000 15.00000000" energy_frozen_part=0.00000000 Properties=species:S:1:pos:R:3:velocities:R:3:Z:I:1
H        11.64948634       0.31107330       9.34685612         0.00000000       0.00000000       0.00000000          1
H         4.53865147       8.20628407      12.92815303         0.00000000       0.00000000       0.00000000          1
H        14.60383247       9.82352694       8.86597432         0.00000000       0.00000000       0.00000000          1
H         8.50980602      11.76722920       4.78807002         0.00000000       0.00000000       0.00000000          1
H        11.17256166      12.38503680      11.77959627         0.00000000       0.00000000       0.00000000          1
H        10.62970187       0.87052233       5.64173260         0.00000000       0.00000000       0.00000000          1
6
pbc=[F, F, F] list_num_par=6 frozen=false iter=109 energy=-0.03660335 Lattice="15.00000000 0.00000000 0.00000000 0.00000000 15.00000000 0.00000000 0.00000000 0.00000000 15.00000000" energy_frozen_part=0.00000000 Properties=species:S:1:pos:R:3:velocities:R:3:Z:I:1
H         4.07266298       2.92869780       7.93001269         0.00000000       0.00000000       0.00000000          1
H        11.17702825      14.79261598      13.96188362         0.00000000       0.00000000       0.00000000          1
H         9.03121743       6.95239966      14.26910556         0.00000000       0.00000000       0.00000000          1
H         0.97925400      10.18932954       0.93634324         0.00000000       0.00000000       0.00000000          1
H         6.68667003       5.68070948       8.02565814         0.00000000       0.00000000       0.00000000          1
H         1.68109366       8.21016765       8.69032280         0.00000000       0.00000000       0.00000000          1
6
pbc=[F, F, F] list_num_par=6 frozen=false iter=119 energy=-0.04115161 Lattice="15.00000000 0.00000000 0.00000000 0.00000000 15.00000000 0.00000000 0.00000000 0.00000000 15.00000000" energy_frozen_part=0.00000000 Properties=species:S:1:pos:R:3:velocities:R:3:Z:I:1
H         2.18361699      10.46075283       8.24173615         0.00000000       0.00000000       0.00000000          1
H        14.33483173      10.01907118      12.43299620         0.00000000       0.00000000       0.00000000          1
H         8.88712688      12.73454481      13.04646812         0.00000000       0.00000000       0.00000000          1
H         9.82866856      11.67752995       6.52114624         0.00000000       0.00000000       0.00000000          1
H         0.07677335       0.85374256       1.24349846         0.00000000       0.00000000       0.00000000          1
H         5.62291130      11.45512923       9.80928582         0.00000000       0.00000000       0.00000000          1
6
pbc=[F, F, F] list_num_par=6 frozen=false iter=129 energy=-0.04536462 Lattice="15.00000000 0.00000000 0.00000000 0.00000000 15.00000000 0.00000000 0.00000000 0.00000000 15.00000000" energy_frozen_part=0.00000000 Properties=species:S:1:pos:R:3:velocities:R:3:Z:I:1
H         5.60545607       3.01866274       2.94164842         0.00000000       0.00000000       0.00000000          1
H        14.15916341       7.43226968       7.46577943         0.00000000       0.00000000       0.00000000          1
H        13.48866814       5.52931371      13.08745934         0.00000000       0.00000000       0.00000000          1
H        13.65358527       4.96877269       2.67770700         0.00000000       0.00000000       0.00000000          1
H        13.86589707      13.37240134      10.38317653         0.00000000       0.00000000       0.00000000          1
H        14.44982787       2.08427415      13.72325281         0.00000000       0.00000000       0.00000000          1
6
pbc=[F, F, F] list_num_par=6 frozen=false iter=139 energy=-0.05019077 Lattice="15.00000000 0.00000000 0.00000000 0.00000000 15.00000000 0.00000000 0.00000000 0.00000000 15.00000000" energy_frozen_part=0.00000000 Properties=species:S:1:pos:R:3:velocities:R:3:Z:I:1
H         1.04362429       3.43462871       9.75009951         0.00000000       0.00000000       0.00000000          1
H         2.68089651       9.31626889       7.71900801         0.00000000       0.00000000       0.00000000          1
H         7.41809825       0.62032495       8.73219243         0.00000000       0.00000000       0.00000000          1
H         8.26943588      11.58626397       0.81839414         0.00000000       0.00000000       0.00000000          1
H         3.58264048      10.26551674       4.47622233         0.00000000       0.00000000       0.00000000          1
H        12.55602400       3.49016514       1.04229624         0.00000000       0.00000000       0.00000000          1
6
pbc=[F, F, F] list_num_par=6 frozen=false iter=149 energy=-0.05499040 Lattice="15.00000000 0.00000000 0.00000000 0.00000000 15.00000000 0.00000000 0.00000000 0.00000000 15.00000000" energy_frozen_part=0.00000000 Properties=species:S:1:pos:R:3:velocities:R:3:Z:I:1
H        10.93481058      13.23747554      12.29212135         0.00000000       0.00000000       0.00000000          1
H         3.59546963       0.32801730       4.91097065         0.00000000       0.00000000       0.00000000          1
H         8.70813658       8.16475840       3.93915818         0.00000000       0.00000000       0.00000000          1
H         1.84547436       3.39762786       3.10886421         0.00000000       0.00000000       0.00000000          1
H         0.02029436       7.10821729       1.71780847         0.00000000       0.00000000       0.00000000          1
H        14.40951979      10.96596358      11.85676006         0.00000000       0.00000000       0.00000000          1
6
pbc=[F, F, F] list_num_par=6 frozen=false iter=159 energy=-0.06170099 Lattice="15.00000000 0.00000000 0.00000000 0.00000000 15.00000000 0.00000000 0.00000000 0.00000000 15.00000000" energy_frozen_part=0.00000000 Properties=species:S:1:pos:R:3:velocities:R:3:Z:I:1
H         7.65328970      12.40330487       4.79534591         0.00000000       0.00000000       0.00000000          1
H         4.74145257      10.42501503       4.41859873         0.00000000       0.00000000       0.00000000          1
H         0.73856604       1.72609695      13.41911691         0.00000000       0.00000000       0.00000000          1
H        14.26076499       6.85443697      14.50331686         0.00000000       0.00000000       0.00000000          1
H         7.38881891      10.95111690       9.72212129         0.00000000       0.00000000       0.00000000          1
H         4.55955931       2.99820011      11.35704548         0.00000000       0.00000000       0.00000000          1
6
pbc=[F, F, F] list_num_par=6 frozen=false iter=169 energy=-0.06613863 Lattice="15.00000000 0.00000000 0.00000000 0.00000000 15.00000000 0.00000000 0.00000000 0.00000000 15.00000000" energy_frozen_part=0.00000000 Properties=species:S:1:pos:R:3:velocities:R:3:Z:I:1
H         6.02597514       4.41001483       1.85251937         0.00000000       0.00000000       0.00000000          1
H        12.36605144       1.93141823       8.03093081         0.00000000       0.00000000       0.00000000          1
H        10.38337199       7.56861403      12.90829670         0.00000000       0.00000000       0.00000000          1
H         4.29623366       3.99805628      11.88040858         0.00000000       0.00000000       0.00000000          1
H         3.35302808       1.15674655      10.59112774         0.00000000       0.00000000       0.00000000          1
H        10.84659308      11.12258310       0.21198395         0.00000000       0.00000000       0.00000000          1
6
pbc=[F, F, F] list_num_par=6 frozen=false iter=179 energy=-0.06978777 Lattice="15.00000000 0.00000000 0.00000000 0.00000000 15.00000000 0.00000000 0.00000000 0.00000000 15.00000000" energy_frozen_part=0.00000000 Properties=species:S:1:pos:R:3:velocities:R:3:Z:I:1
H         1.32169430       3.55077892      10.52617615         0.00000000       0.00000000       0.00000000          1
H         7.42283445       2.93012500      13.07688807         0.00000000       0.00000000       0.00000000          1
H        10.81650411      10.94191969       8.40459398         0.00000000       0.00000000       0.00000000          1
H         0.29109258      10.42747654       9.70804236         0.00000000       0.00000000       0.00000000          1
H        10.14408880      14.02445584       4.75462869         0.00000000       0.00000000       0.00000000          1
H        13.44967812      10.06469830       6.52590814         0.00000000       0.00000000       0.00000000          1
6
pbc=[F, F, F] list_num_par=6 frozen=false iter=189 energy=-0.07351634 Lattice="15.00000000 0.00000000 0.00000000 0.00000000 15.00000000 0.00000000 0.00000000 0.00000000 15.00000000" energy_frozen_part=0.00000000 Properties=species:S:1:pos:R:3:velocities:R:3:Z:I:1
H         6.01846006       3.85092986       5.76178134         0.00000000       0.00000000       0.00000000          1
H        14.08673893       4.04900685       9.92749871         0.00000000       0.00000000       0.00000000          1
H         8.59164484       8.57376576       3.45786039         0.00000000       0.00000000       0.00000000          1
H         1.43907844       2.23847661       2.56557787         0.00000000       0.00000000       0.00000000          1
H        10.07342988       0.60636965       9.56885346         0.00000000       0.00000000       0.00000000          1
H         5.85943883       7.28290898       2.00275054         0.00000000       0.00000000       0.00000000          1
6
pbc=[F, F, F] list_num_par=6 frozen=false iter=199 energy=-0.07913360 Lattice="15.00000000 0.00000000 0.00000000 0.00000000 15.00000000 0.00000000 0.00000000 0.00000000 15.00000000" energy_frozen_part=0.00000000 Properties=species:S:1:pos:R:3:velocities:R:3:Z:I:1
H         9.19849993      14.10597475       6.93441342         0.00000000       0.00000000       0.00000000          1
H        12.49311936      14.88931493       5.45333938         0.00000000       0.00000000       0.00000000          1
H         3.78567733       7.12388310      13.21499159         0.00000000       0.00000000       0.00000000          1
H        13.19928130       8.59772513      11.99774996         0.00000000       0.00000000       0.00000000          1
H        12.10366750      14.21167223      10.08936549         0.00000000       0.00000000       0.00000000          1
H        10.75250331      10.36409280       4.83317182         0.00000000       0.00000000       0.00000000          1
6
pbc=[F, F, F] list_num_par=6 frozen=false iter=209 energy=-0.08343342 Lattice="15.00000000 0.00000000 0.00000000 0.00000000 15.00000000 0.00000000 0.00000000 0.00000000 15.00000000" energy_frozen_part=0.00000000 Properties=species:S:1:pos:R:3:velocities:R:3:Z:I:1
H         5.74695983       9.71166769      14.70452624         0.00000000       0.00000000       0.00000000          1
H         1.44374644       5.63940769       4.04696974         0.00000000       0.00000000       0.00000000          1
H         3.63932264       2.07169908       6.32868126         0.00000000       0.00000000       0.00000000          1
H        13.97034193       3.76787729       5.17479595         0.00000000       0.00000000       0.00000000          1
H         2.29001070       2.25342051       8.50625857         0.00000000       0.00000000       0.00000000          1
H         5.17038127       7.45323111      11.36807917         0.00000000       0.00000000       0.00000000          1
6
pbc=[F, F, F] list_num_par=6 frozen=false iter=219 energy=-0.08654622 Lattice="15.00000000 0.00000000 0.00000000 0.00000000 15.00000000 0.00000000 0.00000000 0.00000000 15.00000000" energy_frozen_part=0.00000000 Properties=species:S:1:pos:R:3:velocities:R:3:Z:I:1
H         4.71397755      12.88697934       8.05928424         0.00000000       0.00000000       0.00000000          1
H         2.28054642       6.78757064      12.76688841         0.00000000       0.00000000       0.00000000          1
H         7.10428553       9.51185836      14.71526302         0.00000000       0.00000000       0.00000000          1
H        10.03001583       6.28824389       3.38590910         0.00000000       0.00000000       0.00000000          1
H        13.15549675      12.26168715       2.44620226         0.00000000       0.00000000       0.00000000          1
H        14.57833750      14.65903416       3.72609986         0.00000000       0.00000000       0.00000000          1
6
pbc=[F, F, F] list_num_par=6 frozen=false iter=229 energy=-0.08954891 Lattice="15.00000000 0.00000000 0.00000000 0.00000000 15.00000000 0.00000000 0.00000000 0.00000000 15.00000000" energy_frozen_part=0.00000000 Properties=species:S:1:pos:R:3:velocities:R:3:Z:I:1
H        14.71124976       2.12199371       4.99417278         0.00000000       0.00000000       0.00000000          1
H         7.54756258      11.05521763      11.44608742         0.00000000       0.00000000       0.00000000          1
H        14.23581993       0.34367896       9.73118355         0.00000000       0.00000000       0.00000000          1
H        12.19193542       9.54534237       9.01693868         0.00000000       0.00000000       0.00000000          1
H        14.26612422      12.52787839       0.82297420         0.00000000       0.00000000       0.00000000          1
H        12.23160711       2.76530391       9.73824812         0.00000000       0.00000000       0.00000000          1
6
pbc=[F, F, F] list_num_par=6 frozen=false iter=239 energy=-0.09304558 Lattice="15.00000000 0.00000000 0.00000000 0.00000000 15.00000000 0.00000000 0.00000000 0.00000000 15.00000000" energy_frozen_part=0.00000000 Properties=species:S:1:pos:R:3:velocities:R:3:Z:I:1
H         7.28440753       1.93646278       8.44314502         0.00000000       0.00000000       0.00000000          1
H        10.90627968      13.61116072       4.74999237         0.00000000       0.00000000       0.00000000          1
H         9.25819365      12.58491454       6.54040019         0.00000000       0.00000000       0.00000000          1
H         2.81118421      11.29919714      14.27804204         0.00000000       0.00000000       0.00000000          1
H         0.47272077       5.89261454      13.85415814         0.00000000       0.00000000       0.00000000          1
H        11.83445228      10.06691737       1.72784174         0.00000000       0.00000000       0.00000000          1
6
pbc=[F, F, F] list_num_par=6 frozen=false iter=249 energy=-0.09699019 Lattice="15.00000000 0.00000000 0.00000000 0.00000000 15.00000000 0.00000000 0.00000000 0.00000000 15.00000000" energy_frozen_part=0.00000000 Properties=species:S:1:pos:R:3:velocities:R:3:Z:I:1
H         8.96493143      11.81813266      11.55793879         0.00000000       0.00000000       0.00000000          1
H        12.71688564       8.00294364       8.84938419         0.00000000       0.00000000       0.00000000          1
H         2.42648930       5.16820227       9.53793960         0.00000000       0.00000000       0.00000000          1
H         8.51324720      14.72486337      12.95761092         0.00000000       0.00000000       0.00000000          1
H        13.63862359       6.95559674      12.40405217         0.00000000       0.00000000       0.00000000          1
H        13.38550441      10.90662808       0.42139668         0.00000000       0.00000000       0.00000000          1
6
pbc=[F, F, F] list_num_par=6 frozen=false iter=259 energy=-0.10010523 Lattice="15.00000000 0.00000000 0.00000000 0.00000000 15.00000000 0.00000000 0.00000000 0.00000000 15.00000000" energy_frozen_part=0.00000000 Properties=species:S:1:pos:R:3:velocities:R:3:Z:I:1
H         3.32906728       6.21812756      10.56101052         0.00000000       0.00000000       0.00000000          1
H        12.94071858       5.24040143       6.61919715         0.00000000       0.00000000       0.00000000          1
H         9.49881793      12.80127647       9.56816366         0.00000000       0.00000000       0.00000000          1
H        13.18622106      11.55050154       0.10331075         0.00000000       0.00000000       0.00000000          1
H        14.19473262       3.59334972       4.53892572         0.00000000       0.00000000       0.00000000          1
H         7.18121855      11.63263307       5.07262864         0.00000000       0.00000000       0.00000000          1
6
pbc=[F, F, F] list_num_par=6 frozen=false iter=269 energy=-0.10319439 Lattice="15.00000000 0.00000000 0.00000000 0.00000000 15.00000000 0.00000000 0.00000000 0.00000000 15.00000000" energy_frozen_part=0.00000000 Properties=species:S:1:pos:R:3:velocities:R:3:Z:I:1
H         0.34962528       5.96146356       2.75921542         0.00000000       0.00000000       0.00000000          1
H         3.92211951       1.60219052       5.99119770         0.00000000       0.00000000       0.00000000          1
H         4.32350874       4.27870206      11.12009983         0.00000000       0.00000000       0.00000000          1
H         8.32346557       2.18781066      14.65272238         0.00000000       0.00000000       0.00000000          1
H         5.09912900      14.56307806       2.45098354         0.00000000       0.00000000       0.00000000          1
H         2.96927365       6.65995611       2.77868187         0.00000000       0.00000000       0.00000000          1
6
pbc=[F, F, F] list_num_par=6 frozen=false iter=279 energy=-0.10577285 Lattice="15.00000000 0.00000000 0.00000000 0.00000000 15.00000000 0.00000000 0.00000000 0.00000000 15.00000000" energy_frozen_part=0.00000000 Properties=species:S:1:pos:R:3:velocities:R:3:Z:I:1
H         8.77975263      14.89102988      13.78037259         0.00000000       0.00000000       0.00000000          1
H         2.14613625       6.98095223       0.51053077         0.00000000       0.00000000       0.00000000          1
H         9.00554209       4.14801513       5.08891059         0.00000000       0.00000000       0.00000000          1
H         6.68892460      14.95740165      11.92485391         0.00000000       0.00000000       0.00000000          1
H         9.54779892       1.38572212      10.21695331         0.00000000       0.00000000       0.00000000          1
H         1.24276232      12.26887650       1.63941130         0.00000000       0.00000000       0.00000000          1
6
pbc=[F, F, F] list_num_par=6 frozen=false iter=289 energy=-0.10865129 Lattice="15.00000000 0.00000000 0.00000000 0.00000000 15.00000000 0.00000000 0.00000000 0.00000000 15.00000000" energy_frozen_part=0.00000000 Properties=species:S:1:pos:R:3:velocities:R:3:Z:I:1
H         7.11109217       4.68597634      14.16739865         0.00000000       0.00000000       0.00000000          1
H         6.85737471       3.15089578      12.17774755         0.00000000       0.00000000       0.00000000          1
H        11.24306654      14.73605487       6.77780318         0.00000000       0.00000000       0.00000000          1
H         9.26269054       0.74640033       8.59244619         0.00000000       0.00000000       0.00000000          1
H         9.47721515      13.72555876       4.40328571         0.00000000       0.00000000       0.00000000          1
H         9.14903209       7.89019319       2.70461284         0.00000000       0.00000000       0.00000000          1
6
pbc=[F, F, F] list_num_par=6 frozen=false iter=299 energy=-0.11083336 Lattice="15.00000000 0.00000000 0.00000000 0.00000000 15.00000000 0.00000000 0.00000000 0.00000000 15.00000000" energy_frozen_part=0.00000000 Properties=species:S:1:pos:R:3:velocities:R:3:Z:I:1
H         8.70634004      13.88355039       4.15118163         0.00000000       0.00000000       0.00000000          1
H         7.48815846       6.65970952       3.02782451         0.00000000       0.00000000       0.00000000          1
H        10.79555058       9.13979727       0.28624255         0.00000000       0.00000000       0.00000000          1
H         5.64472510      10.06967776       9.28193067         0.00000000       0.00000000       0.00000000          1
H         8.67163385       6.23612707       5.68478773         0.00000000       0.00000000       0.00000000          1
H         4.46516479       2.05724746       5.45395874         0.00000000       0.00000000       0.00000000          1
6
pbc=[F, F, F] list_num_par=6 frozen=false iter=309 energy=-0.11405505 Lattice="15.00000000 0.00000000 0.00000000 0.00000000 15.00000000 0.00000000 0.00000000 0.00000000 15.00000000" energy_frozen_part=0.00000000 Properties=species:S:1:pos:R:3:velocities:R:3:Z:I:1
H         2.53005871       4.24167409       2.98158204         0.00000000       0.00000000       0.00000000          1
H         8.37034497       2.92577336       6.80644078         0.00000000       0.00000000       0.00000000          1