6
pbc=[F, F, F] list_num_par=6 frozen=false iter=9 energy=8.41434841 Lattice="15.00000000 0.00000000 0.00000000 0.00000000 15.00000000 0.00000000 0.00000000 0.00000000 15.00000000" energy_frozen_part=0.00000000 Properties=species:S:1:pos:R:3:velocities:R:3:Z:I:1
H        13.92242507       1.99194330       7.76583404         0.00000000       0.00000000       0.00000000          1
H         3.26782012       3.84621898       9.70223954         0.00000000       0.00000000       0.00000000          1
H        11.10570862      11.81481700       2.57191489         0.00000000       0.00000000       0.00000000          1
H         2.40518227      10.36260595      10.41777433         0.00000000       0.00000000       0.00000000          1
H         1.58586790      12.05498410      10.11446637         0.00000000       0.00000000       0.00000000          1
H        11.83979215       4.39404067       3.29197366         0.00000000       0.00000000       0.00000000          1
6
pbc=[F, F, F] list_num_par=6 frozen=false iter=19 energy=-0.00160617 Lattice="15.00000000 0.00000000 0.00000000 0.00000000 15.00000000 0.00000000 0.00000000 0.00000000 15.00000000" energy_frozen_part=0.00000000 Properties=species:S:1:pos:R:3:velocities:R:3:Z:I:1
H        14.49331504       9.89984345       8.32070553         0.00000000       0.00000000       0.00000000          1
H        13.77846512       5.40116100       3.85546708         0.00000000       0.00000000       0.00000000          1
H         4.01831717      14.46363216       3.41642197         0.00000000       0.00000000       0.00000000          1
H         4.46754073       5.52090870       7.56779566         0.00000000       0.00000000       0.00000000          1
H        10.64851411       0.09431162      10.64773501         0.00000000       0.00000000       0.00000000          1
H         0.67123086       1.08323101       0.53566590         0.00000000       0.00000000       0.00000000          1
6
pbc=[F, F, F] list_num_par=6 frozen=false iter=29 energy=-0.00483996 Lattice="15.00000000 0.00000000 0.00000000 0.00000000 15.00000000 0.00000000 0.00000000 0.00000000 15.00000000" energy_frozen_part=0.00000000 Properties=species:S:1:pos:R:3:velocities:R:3:Z:I:1
H        10.54096688       8.54651388       2.34603092         0.00000000       0.00000000       0.00000000          1
H         1.81866013      14.87035560       2.32145055         0.00000000       0.00000000       0.00000000          1
H         1.37305564      10.07427353       4.92759489         0.00000000       0.00000000       0.00000000          1
H         7.52107648       5.64007983      12.18666236         0.00000000       0.00000000       0.00000000          1
H        14.72895978       3.79501865       7.25874463         0.00000000       0.00000000       0.00000000          1
H         5.51030654       4.21339492       0.42137113         0.00000000       0.00000000       0.00000000          1
6
pbc=[F, F, F] list_num_par=6 frozen=false iter=39 energy=-0.00678709 Lattice="15.00000000 0.00000000 0.00000000 0.00000000 15.00000000 0.00000000 0.00000000 0.00000000 15.00000000" energy_frozen_part=0.00000000 Properties=species:S:1:pos:R:3:velocities:R:3:Z:I:1
H         6.31529850      14.61876318       4.33621718         0.00000000       0.00000000       0.00000000          1
H         4.41846600       2.24985358       6.18738345         0.00000000       0.00000000       0.00000000          1
H         9.04975183       8.89811945      14.86423366         0.00000000       0.00000000       0.00000000          1
H         2.58448715      10.47839525       6.59068001         0.00000000       0.00000000       0.00000000          1
H         3.79954968      10.68846693      14.37583952         0.00000000       0.00000000       0.00000000          1
H        13.91937053      12.30383684      12.23403284         0.00000000       0.00000000       0.00000000          1
6
pbc=[F, F, F] list_num_par=6 frozen=false iter=49 energy=-0.00819230 Lattice="15.00000000 0.00000000 0.00000000 0.00000000 15.00000000 0.00000000 0.00000000 0.00000000 15.00000000" energy_frozen_part=0.00000000 Properties=species:S:1:pos:R:3:velocities:R:3:Z:I:1
H         6.70013324       2.75370594      14.11313351         0.00000000       0.00000000       0.00000000          1
H         4.48506202       1.58768817       9.42534501         0.00000000       0.00000000       0.00000000          1
H        13.51863587       6.58566907       0.11610306         0.00000000       0.00000000       0.00000000          1
H        14.97554739      12.54502172       9.62446995         0.00000000       0.00000000       0.00000000          1
H         8.66975745       6.77032743       9.07766317         0.00000000       0.00000000       0.00000000          1
H         4.93524822       1.59265753       3.32307264         0.00000000       0.00000000       0.00000000          1
6
pbc=[F, F, F] list_num_par=6 frozen=false iter=59 energy=-0.01088640 Lattice="15.00000000 0.00000000 0.00000000 0.00000000 15.00000000 0.00000000 0.00000000 0.00000000 15.00000000" energy_frozen_part=0.00000000 Properties=species:S:1:pos:R:3:velocities:R:3:Z:I:1
H        13.44975742       8.77647549      14.02079347         0.00000000       0.00000000       0.00000000          1
H         4.98272553      10.98180038      12.73155782         0.00000000       0.00000000       0.00000000          1
H        14.59062321       4.52040242       6.08240199         0.00000000       0.00000000       0.00000000          1
H        12.32203667       0.93886165       3.98193148         0.00000000       0.00000000       0.00000000          1
H         4.36939700       6.99838301       7.49595725         0.00000000       0.00000000       0.00000000          1
H        13.39534285       8.13020033       0.53054619         0.00000000       0.00000000       0.00000000          1
6
pbc=[F, F, F] list_num_par=6 frozen=false iter=69 energy=-0.01633904 Lattice="15.00000000 0.00000000 0.00000000 0.00000000 15.00000000 0.00000000 0.00000000 0.00000000 15.00000000" energy_frozen_part=0.00000000 Properties=species:S:1:pos:R:3:velocities:R:3:Z:I:1
H         6.06472002      10.18787752      13.11369020         0.00000000       0.00000000       0.00000000          1
H         9.55180617       7.36368635      10.48866992         0.00000000       0.00000000       0.00000000          1
H         8.70104341       7.85897296       1.57740404         0.00000000       0.00000000       0.00000000          1
H         6.25458155       0.92184602      12.00404400         0.00000000       0.00000000       0.00000000          1
H        12.20146053       8.82102999       6.05259638         0.00000000       0.00000000       0.00000000          1
H        14.15965383       4.33106246       3.54159975         0.00000000       0.00000000       0.00000000          1
6
pbc=[F, F, F] list_num_par=6 frozen=false iter=79 energy=-0.02186292 Lattice="15.00000000 0.00000000 0.00000000 0.00000000 15.00000000 0.00000000 0.00000000 0.00000000 15.00000000" energy_frozen_part=0.00000000 Properties=species:S:1:pos:R:3:velocities:R:3:Z:I:1
H         9.87739601       1.20316130       4.84670913         0.00000000       0.00000000       0.00000000          1
H         9.87652283      14.68349793       1.48486548         0.00000000       0.00000000       0.00000000          1
H         5.11123489      14.93603017       1.89717491         0.00000000       0.00000000       0.00000000          1
H         1.09526151       6.85509046      14.87247313         0.00000000       0.00000000       0.00000000          1
H         2.47989154      11.46594347       2.62681383         0.00000000       0.00000000       0.00000000          1
H         3.77682146      14.54258394       9.04484461         0.00000000       0.00000000       0.00000000          1
6
pbc=[F, F, F] list_num_par=6 frozen=false iter=89 energy=-0.02649841 Lattice="15.00000000 0.00000000 0.00000000 0.00000000 15.00000000 0.00000000 0.00000000 0.00000000 15.00000000" energy_frozen_part=0.00000000 Properties=species:S:1:pos:R:3:velocities:R:3:Z:I:1
H         0.46020110      11.02992579       5.09158682         0.00000000       0.00000000       0.00000000          1
H         8.44991784       2.10672722       1.41215957         0.00000000       0.00000000       0.00000000          1
H         9.60227798       7.54785071      10.34965924         0.00000000       0.00000000       0.00000000          1
H        14.79982177       1.80401895       4.75806178         0.00000000       0.00000000       0.00000000          1
H        13.96589381       7.45792878       1.50647263         0.00000000       0.00000000       0.00000000          1
H         9.27830153       2.31123330       5.38635657         0.00000000       0.00000000       0.00000000          1
6
pbc=[F, F, F] list_num_par=6 frozen=false iter=99 energy=-0.03240047 Lattice="15.00000000 0.00000000 0.00000000 0.00000000 15.00000000 0.00000000 0.00000000 0.00000000 15.00000000" energy_frozen_part=0.00000000 Properties=species:S:1:pos:R:3:velocities:R:3:Z:I:1
H        11.50770863       5.28374475      13.09250267         0.00000000       0.00000000       0.00000000          1
H        11.31953416      14.48702820       5.04649878         0.00000000       0.00000000       0.00000000          1
H        13.46121115       9.97894993      14.81538632         0.00000000       0.00000000       0.00000000          1
H        12.54662899      13.38968805      12.85949829         0.00000000       0.00000000       0.00000000          1
H         8.16562748       1.84169493      12.05006201         0.00000000       0.00000000       0.00000000          1
H         2.90941234      12.30501102       9.88948452         0.00000000       0.00000000       0.00000000          1
6
pbc=[F, F, F] list_num_par=6 frozen=false iter=109 energy=-0.03832638 Lattice="15.00000000 0.00000000 0.00000000 0.00000000 15.00000000 0.00000000 0.00000000 0.00000000 15.00000000" energy_frozen_part=0.00000000 Properties=species:S:1:pos:R:3:velocities:R:3:Z:I:1
H         6.51478423       8.18806743      13.05445874         0.00000000       0.00000000       0.00000000          1
H        14.07803609      13.30480183       9.84710685         0.00000000       0.00000000       0.00000000          1
H         9.68634534       6.45618500       1.27901542         0.00000000       0.00000000       0.00000000          1
H        11.17466311      13.00383142       3.99234408         0.00000000       0.00000000       0.00000000          1
H        12.43461457       9.58708017       9.20525185         0.00000000       0.00000000       0.00000000          1
H         7.71237870      10.40927435       8.70265044         0.00000000       0.00000000       0.00000000          1
6
pbc=[F, F, F] list_num_par=6 frozen=false iter=119 energy=-0.04431804 Lattice="15.00000000 0.00000000 0.00000000 0.00000000 15.00000000 0.00000000 0.00000000 0.00000000 15.00000000" energy_frozen_part=0.00000000 Properties=species:S:1:pos:R:3:velocities:R:3:Z:I:1
H         2.03084228       4.71604650       4.24959302         0.00000000       0.00000000       0.00000000          1
H         9.15485719      13.34440675       2.54295186         0.00000000       0.00000000       0.00000000          1
H         5.52481990       2.62332043       6.79013196         0.00000000       0.00000000       0.00000000          1
H         6.37814584       4.82713722       9.69127330         0.00000000       0.00000000       0.00000000          1
H        11.32313809      11.32327268       8.25617647         0.00000000       0.00000000       0.00000000          1
H         3.83866289      11.64909994       6.44652700         0.00000000       0.00000000       0.00000000          1
6
pbc=[F, F, F] list_num_par=6 frozen=false iter=129 energy=-0.05067705 Lattice="15.00000000 0.00000000 0.00000000 0.00000000 15.00000000 0.00000000 0.00000000 0.00000000 15.00000000" energy_frozen_part=0.00000000 Properties=species:S:1:pos:R:3:velocities:R:3:Z:I:1
H        14.35427845       1.72218056       2.04404667         0.00000000       0.00000000       0.00000000          1
H        10.76016519       0.29339023      13.79779183         0.00000000       0.00000000       0.00000000          1
H         5.77935482       5.22055093      12.33794582         0.00000000       0.00000000       0.00000000          1
H         5.04867360       6.90590155       9.26633631         0.00000000       0.00000000       0.00000000          1
H         9.01912980       2.33866722       8.94221898         0.00000000       0.00000000       0.00000000          1
H         8.93662960      12.87031676       7.11901888         0.00000000       0.00000000       0.00000000          1
6
pbc=[F, F, F] list_num_par=6 frozen=false iter=139 energy=-0.05514935 Lattice="15.00000000 0.00000000 0.00000000 0.00000000 15.00000000 0.00000000 0.00000000 0.00000000 15.00000000" energy_frozen_part=0.00000000 Properties=species:S:1:pos:R:3:velocities:R:3:Z:I:1
H        11.04225065       7.94567441       0.55803843         0.00000000       0.00000000       0.00000000          1
H         5.55946280       9.06242216      11.49581293         0.00000000       0.00000000       0.00000000          1
H         0.49774453      11.48941727      14.71716981         0.00000000       0.00000000       0.00000000          1
H         1.95036139       1.85616551       9.13186289         0.00000000       0.00000000       0.00000000          1
H         3.18697912       5.07216391       1.83996268         0.00000000       0.00000000       0.00000000          1
H         2.76114281       2.35298791      12.40116397         0.00000000       0.00000000       0.00000000          1
6
pbc=[F, F, F] list_num_par=6 frozen=false iter=149 energy=-0.06404600 Lattice="15.00000000 0.00000000 0.00000000 0.00000000 15.00000000 0.00000000 0.00000000 0.00000000 15.00000000" energy_frozen_part=0.00000000 Properties=species:S:1:pos:R:3:velocities:R:3:Z:I:1
H         3.36778836       3.43625091       1.55629546         0.00000000       0.00000000       0.00000000          1
H         2.85613681      12.26388084       5.00398700         0.00000000       0.00000000       0.00000000          1
H         5.18281854      14.16440682       6.48955238         0.00000000       0.00000000       0.00000000          1
H         9.64419409       1.77462004      11.68994372         0.00000000       0.00000000       0.00000000          1
H         8.99830545      14.70383207       3.29538665         0.00000000       0.00000000       0.00000000          1
H        11.78204534       3.18007217       2.27118200         0.00000000       0.00000000       0.00000000          1
6
pbc=[F, F, F] list_num_par=6 frozen=false iter=159 energy=-0.06726166 Lattice="15.00000000 0.00000000 0.00000000 0.00000000 15.00000000 0.00000000 0.00000000 0.00000000 15.00000000" energy_frozen_part=0.00000000 Properties=species:S:1:pos:R:3:velocities:R:3:Z:I:1
H        11.87175573       7.41285783      14.61056520         0.00000000       0.00000000       0.00000000          1
H         5.77915006       4.54928479       3.86722143         0.00000000       0.00000000       0.00000000          1
H        10.53310354       6.22066063       9.45697297         0.00000000       0.00000000       0.00000000          1
H        12.40238812      12.28385235       1.17562309         0.00000000       0.00000000       0.00000000          1
H         3.16274583       4.60376270      10.46727035         0.00000000       0.00000000       0.00000000          1
H         1.68225671       5.42487100       8.51053094         0.00000000       0.00000000       0.00000000          1
6
pbc=[F, F, F] list_num_par=6 frozen=false iter=169 energy=-0.07392674 Lattice="15.00000000 0.00000000 0.00000000 0.00000000 15.00000000 0.00000000 0.00000000 0.00000000 15.00000000" energy_frozen_part=0.00000000 Properties=species:S:1:pos:R:3:velocities:R:3:Z:I:1
H         8.21803756       5.93752204       2.97443014         0.00000000       0.00000000       0.00000000          1
H         8.03149321      12.41550458       8.82643758         0.00000000       0.00000000       0.00000000          1
H         3.00245296       8.00160684       7.77991747         0.00000000       0.00000000       0.00000000          1
H         4.76981147       4.96148499       9.71102695         0.00000000       0.00000000       0.00000000          1
H        14.21001818       8.11877576       5.30171129         0.00000000       0.00000000       0.00000000          1
H         9.66777909      10.36025221      11.10527599         0.00000000       0.00000000       0.00000000          1
6
pbc=[F, F, F] list_num_par=6 frozen=false iter=179 energy=-0.07846376 Lattice="15.00000000 0.00000000 0.00000000 0.00000000 15.00000000 0.00000000 0.00000000 0.00000000 15.00000000" energy_frozen_part=0.00000000 Properties=species:S:1:pos:R:3:velocities:R:3:Z:I:1
H         9.29224088      10.36504658       4.26500346         0.00000000       0.00000000       0.00000000          1
H         9.16687906       9.82326084       1.69220464         0.00000000       0.00000000       0.00000000          1
H         2.22077590       5.23979759       8.38111056         0.00000000       0.00000000       0.00000000          1
H         0.28712970       6.45287900       0.12551886         0.00000000       0.00000000       0.00000000          1
H         8.87982161      14.01920291      11.44053557         0.00000000       0.00000000       0.00000000          1
H         8.94297690       2.28339438      14.82266869         0.00000000       0.00000000       0.00000000          1
6
pbc=[F, F, F] list_num_par=6 frozen=false iter=189 energy=-0.08446847 Lattice="15.00000000 0.00000000 0.00000000 0.00000000 15.00000000 0.00000000 0.00000000 0.00000000 15.00000000" energy_frozen_part=0.00000000 Properties=species:S:1:pos:R:3:velocities:R:3:Z:I:1
H         7.10932171       5.37922661      10.18165619         0.00000000       0.00000000       0.00000000          1
H         4.76662348      11.35995636       8.31548447         0.00000000       0.00000000       0.00000000          1
H        10.29844774      14.48465761      11.94010853         0.00000000       0.00000000       0.00000000          1
H         0.26092342       8.00207398      13.99544546         0.00000000       0.00000000       0.00000000          1
H         7.66325284       7.87152434      12.21434079         0.00000000       0.00000000       0.00000000          1
H        11.91616556       6.34726920      12.45818390         0.00000000       0.00000000       0.00000000          1
6
pbc=[F, F, F] list_num_par=6 frozen=false iter=199 energy=-0.08836092 Lattice="15.00000000 0.00000000 0.00000000 0.00000000 15.00000000 0.00000000 0.00000000 0.00000000 15.00000000" energy_frozen_part=0.00000000 Properties=species:S:1:pos:R:3:velocities:R:3:Z:I:1
H        11.34524356       9.13820632       1.46064626         0.00000000       0.00000000       0.00000000          1
H         6.94147508      14.24326200      10.52166892         0.00000000       0.00000000       0.00000000          1
H         4.23730274      13.23729777      11.51042366         0.00000000       0.00000000       0.00000000          1
H         6.58960604       4.20810858       3.50922605         0.00000000       0.00000000       0.00000000          1
H         5.15811982      10.08612389       3.15800073         0.00000000       0.00000000       0.00000000          1
H         1.70971749       2.34694583      13.64821637         0.00000000       0.00000000       0.00000000          1
6
pbc=[F, F, F] list_num_par=6 frozen=false iter=209 energy=-0.09066522 Lattice="15.00000000 0.00000000 0.00000000 0.00000000 15.00000000 0.00000000 0.00000000 0.00000000 15.00000000" energy_frozen_part=0.00000000 Properties=species:S:1:pos:R:3:velocities:R:3:Z:I:1
H        12.50466003       0.21235570       8.60850283         0.00000000       0.00000000       0.00000000          1
H         8.59823307       8.07281666       0.02915846         0.00000000       0.00000000       0.00000000          1
H        14.24302712      11.22623462      10.35681275         0.00000000       0.00000000       0.00000000          1
H         4.76441229       6.88207385      13.54661373         0.00000000       0.00000000       0.00000000          1
H        13.98058921      13.24529387       8.17267977         0.00000000       0.00000000       0.00000000          1
H         6.23224774      14.93097104       2.02725965         0.00000000       0.00000000       0.00000000          1
6
pbc=[F, F, F] list_num_par=6 frozen=false iter=219 energy=-0.09443535 Lattice="15.00000000 0.00000000 0.00000000 0.00000000 15.00000000 0.00000000 0.00000000 0.00000000 15.00000000" energy_frozen_part=0.00000000 Properties=species:S:1:pos:R:3:velocities:R:3:Z:I:1
H        10.31718818      12.81815095       4.65732408         0.00000000       0.00000000       0.00000000          1
H        13.82441050       3.42363029       7.56837571         0.00000000       0.00000000       0.00000000          1
H        14.68332782       1.61500926       5.07725787         0.00000000       0.00000000       0.00000000          1
H         8.67217115      12.04283081       1.03682227         0.00000000       0.00000000       0.00000000          1
H         0.30833499       7.15799758       6.23015132         0.00000000       0.00000000       0.00000000          1
H        11.61200043       6.45601942       1.09080854         0.00000000       0.00000000       0.00000000          1
6
pbc=[F, F, F] list_num_par=6 frozen=false iter=229 energy=-0.09716848 Lattice="15.00000000 0.00000000 0.00000000 0.00000000 15.00000000 0.00000000 0.00000000 0.00000000 15.00000000" energy_frozen_part=0.00000000 Properties=species:S:1:pos:R:3:velocities:R:3:Z:I:1
H         9.92643565       3.32140665      13.08230549         0.00000000       0.00000000       0.00000000          1
H         6.90572239       6.74649230      12.76442505         0.00000000       0.00000000       0.00000000          1
H         7.36674291       9.00538817      11.51100576         0.00000000       0.00000000       0.00000000          1
H         6.46972620       0.56041755       1.32560739         0.00000000       0.00000000       0.00000000          1
H         6.07654647       0.76303287       6.03316320         0.00000000       0.00000000       0.00000000          1
H         7.17611961       8.17497802       4.62778168         0.00000000       0.00000000       0.00000000          1
6
pbc=[F, F, F] list_num_par=6 frozen=false iter=239 energy=-0.09956568 Lattice="15.00000000 0.00000000 0.00000000 0.00000000 15.00000000 0.00000000 0.00000000 0.00000000 15.00000000" energy_frozen_part=0.00000000 Properties=species:S:1:pos:R:3:velocities:R:3:Z:I:1
H         4.41975814      10.53381518       1.27004524         0.00000000       0.00000000       0.00000000          1
H         3.56100059       4.36385121       9.55714910         0.00000000       0.00000000       0.00000000          1
H         8.83450729       5.17094998       3.68992503         0.00000000       0.00000000       0.00000000          1
H        13.47718042       1.54757100       3.21444178         0.00000000       0.00000000       0.00000000          1
H        13.98315275       9.80185390      13.08109368         0.00000000       0.00000000       0.00000000          1
H        14.80955447       2.82031681       0.95733455         0.00000000       0.00000000       0.00000000          1
6
pbc=[F, F, F] list_num_par=6 frozen=false iter=249 energy=-0.10070617 Lattice="15.00000000 0.00000000 0.00000000 0.00000000 15.00000000 0.00000000 0.00000000 0.00000000 15.00000000" energy_frozen_part=0.00000000 Properties=species:S:1:pos:R:3:velocities:R:3:Z:I:1
H         4.39619561       4.42284124       1.89933312         0.00000000       0.00000000       0.00000000          1
H         9.61552439       6.32696706      14.01635414         0.00000000       0.00000000       0.00000000          1
H         1.39780096       3.47296206      14.75549080         0.00000000       0.00000000       0.00000000          1
H         5.74780519       0.36906603       7.47582338         0.00000000       0.00000000       0.00000000          1
H         0.21495822      14.99204567       2.80275745         0.00000000       0.00000000       0.00000000          1
H        11.66899555       4.54940151      13.39321872         0.00000000       0.00000000       0.00000000          1
6
pbc=[F, F, F] list_num_par=6 frozen=false iter=259 energy=-0.10262339 Lattice="15.00000000 0.00000000 0.00000000 0.00000000 15.00000000 0.00000000 0.00000000 0.00000000 15.00000000" energy_frozen_part=0.00000000 Properties=species:S:1:pos:R:3:velocities:R:3:Z:I:1
H        12.77631106      11.54629479      13.92942140         0.00000000       0.00000000       0.00000000          1
H         6.06877754       9.78868920      10.13540345         0.00000000       0.00000000       0.00000000          1
H         0.06885074       2.72736756      12.58232158         0.00000000       0.00000000       0.00000000          1
H        10.27860399      14.73348841      14.29427921         0.00000000       0.00000000       0.00000000          1
H         9.17896877      10.28506316      10.42626715         0.00000000       0.00000000       0.00000000          1
H         0.07838630      11.06774490      13.31736484         0.00000000       0.00000000       0.00000000          1
6
pbc=[F, F, F] list_num_par=6 frozen=false iter=269 energy=-0.10497153 Lattice="15.00000000 0.00000000 0.00000000 0.00000000 15.00000000 0.00000000 0.00000000 0.00000000 15.00000000" energy_frozen_part=0.00000000 Properties=species:S:1:pos:R:3:velocities:R:3:Z:I:1
H         9.45496782       7.67816180       4.58379372         0.00000000       0.00000000       0.00000000          1
H         5.41147398       6.61800796      10.69140446         0.00000000       0.00000000       0.00000000          1
H        10.64111126       9.69716662       2.47874143         0.00000000       0.00000000       0.00000000          1
H         5.59008087       9.81881842       6.80460962         0.00000000       0.00000000       0.00000000          1
H         1.16108399       8.59750472      10.23144122         0.00000000       0.00000000       0.00000000          1
H         9.05070912       2.80112023       2.48038932         0.00000000       0.00000000       0.00000000          1
6
pbc=[F, F, F] list_num_par=6 frozen=false iter=279 energy=-0.10754028 Lattice="15.00000000 0.00000000 0.00000000 0.00000000 15.00000000 0.00000000 0.00000000 0.00000000 15.00000000" energy_frozen_part=0.00000000 Properties=species:S:1:pos:R:3:velocities:R:3:Z:I:1
H         2.44856354      11.09514621       3.59019977         0.00000000       0.00000000       0.00000000          1
H        14.53083562      14.27376255       5.00685013         0.00000000       0.00000000       0.00000000          1
H         7.36888130      13.85181694       5.13187737         0.00000000       0.00000000       0.00000000          1
H        12.34563423      12.95740134       3.79532910         0.00000000       0.00000000       0.00000000          1
H         3.11285599       2.69077634       3.54533229         0.00000000       0.00000000       0.00000000          1
H         7.36275813       4.67198822      11.74216792         0.00000000       0.00000000       0.00000000          1
6
pbc=[F, F, F] list_num_par=6 frozen=false iter=289 energy=-0.10988206 Lattice="15.00000000 0.00000000 0.00000000 0.00000000 15.00000000 0.00000000 0.00000000 0.00000000 15.00000000" energy_frozen_part=0.00000000 Properties=species:S:1:pos:R:3:velocities:R:3:Z:I:1
H         2.68501088       3.07395966      10.06460094         0.00000000       0.00000000       0.00000000          1
H         5.59481716       0.90534473       1.13645043         0.00000000       0.00000000       0.00000000          1
H         5.62378644       9.50240279      11.78634919         0.00000000       0.00000000       0.00000000          1
H         5.84376808      14.43344668       7.11483776         0.00000000       0.00000000       0.00000000          1
H         3.17783035       0.20104794       2.40181641         0.00000000       0.00000000       0.00000000          1
H         9.85930665      11.71880297      10.11881241         0.00000000       0.00000000       0.00000000          1
6
pbc=[F, F, F] list_num_par=6 frozen=false iter=299 energy=-0.11465655 Lattice="15.00000000 0.00000000 0.00000000 0.00000000 15.00000000 0.00000000 0.00000000 0.00000000 15.00000000" energy_frozen_part=0.00000000 Properties=species:S:1:pos:R:3:velocities:R:3:Z:I:1
H         9.75800318      11.96452208      14.04792131         0.00000000       0.00000000       0.00000000          1
H        12.48762448       4.64607482       8.07623657         0.00000000       0.00000000       0.00000000          1
H        11.15331330       4.43030617       3.46448832         0.00000000       0.00000000       0.00000000          1
H        10.39316753       4.67911618      10.74518094         0.00000000       0.00000000       0.00000000          1
H        11.83366154       2.46188422      13.24260086         0.00000000       0.00000000       0.00000000          1
H         8.38164781       5.24698391       0.06173380         0.00000000       0.00000000       0.00000000          1
6
pbc=[F, F, F] list_num_par=6 frozen=false iter=309 energy=-0.11599548 Lattice="15.00000000 0.00000000 0.00000000 0.00000000 15.00000000 0.00000000 0.00000000 0.00000000 15.00000000" energy_frozen_part=0.00000000 Properties=species:S:1:pos:R:3:velocities:R:3:Z:I:1
H        12.81702259      12.39100098      14.40209970         0.00000000       0.00000000       0.00000000          1
H         2.92414370       3.30717045       6.57873686         0.00000000       0.00000000       0.00000000          1