6
pbc=[F, F, F] list_num_par=6 frozen=false iter=9 energy=74.25080637 Lattice="15.00000000 0.00000000 0.00000000 0.00000000 15.00000000 0.00000000 0.00000000 0.00000000 15.00000000" energy_frozen_part=0.00000000 Properties=species:S:1:pos:R:3:velocities:R:3:Z:I:1
H         3.22334004       1.95850303       7.34399082         0.00000000       0.00000000       0.00000000          1
H        13.78949676      12.43809071       8.63210013         0.00000000       0.00000000       0.00000000          1
H         7.64800865       5.49036048       6.32777941         0.00000000       0.00000000       0.00000000          1
H         5.46742168       2.09850675       4.23247061         0.00000000       0.00000000       0.00000000          1
H         3.54436522      10.97991862       9.51314733         0.00000000       0.00000000       0.00000000          1
H        14.00664840      13.59714467       9.72490040         0.00000000       0.00000000       0.00000000          1
6
pbc=[F, F, F] list_num_par=6 frozen=false iter=19 energy=3.63933636 Lattice="15.00000000 0.00000000 0.00000000 0.00000000 15.00000000 0.00000000 0.00000000 0.00000000 15.00000000" energy_frozen_part=0.00000000 Properties=species:S:1:pos:R:3:velocities:R:3:Z:I:1
H        12.15735740       6.14642147      14.93710475         0.00000000       0.00000000       0.00000000          1
H         4.24187524       1.38678291      10.99614761         0.00000000       0.00000000       0.00000000          1
H         5.88900354      11.36299123      12.50506731         0.00000000       0.00000000       0.00000000          1
H         4.76582977      13.88552731      11.01575707         0.00000000       0.00000000       0.00000000          1
H        14.87363201       9.49732556       2.68736803         0.00000000       0.00000000       0.00000000          1
H         6.39562803       9.40743958      12.48460054         0.00000000       0.00000000       0.00000000          1
6
pbc=[F, F, F] list_num_par=6 frozen=false iter=29 energy=-0.00062979 Lattice="15.00000000 0.00000000 0.00000000 0.00000000 15.00000000 0.00000000 0.00000000 0.00000000 15.00000000" energy_frozen_part=0.00000000 Properties=species:S:1:pos:R:3:velocities:R:3:Z:I:1
H         2.77564856       9.76788466       2.33113199         0.00000000       0.00000000       0.00000000          1
H        11.10886782       6.30951637      10.21271715         0.00000000       0.00000000       0.00000000          1
H        14.06625539       3.18126458       1.42035277         0.00000000       0.00000000       0.00000000          1
H         0.69898853       5.80863147      12.48855113         0.00000000       0.00000000       0.00000000          1
H         3.55118389       1.29721499       0.47874913         0.00000000       0.00000000       0.00000000          1
H         8.92300445      13.87897416       1.81726773         0.00000000       0.00000000       0.00000000          1
6
pbc=[F, F, F] list_num_par=6 frozen=false iter=39 energy=-0.00423035 Lattice="15.00000000 0.00000000 0.00000000 0.00000000 15.00000000 0.00000000 0.00000000 0.00000000 15.00000000" energy_frozen_part=0.00000000 Properties=species:S:1:pos:R:3:velocities:R:3:Z:I:1
H         2.23351768      11.84172677      11.79848537         0.00000000       0.00000000       0.00000000          1
H         9.57460161      10.23522896       8.01022762         0.00000000       0.00000000       0.00000000          1
H        13.79920418       4.06905811       5.23171801         0.00000000       0.00000000       0.00000000          1
H        13.97831961       1.46805095       0.11986528         0.00000000       0.00000000       0.00000000          1
H         4.13194958       0.05583514      12.98580773         0.00000000       0.00000000       0.00000000          1
H        13.44750404      14.58239056      10.97752065         0.00000000       0.00000000       0.00000000          1
6
pbc=[F, F, F] list_num_par=6 frozen=false iter=49 energy=-0.00836496 Lattice="15.00000000 0.00000000 0.00000000 0.00000000 15.00000000 0.00000000 0.00000000 0.00000000 15.00000000" energy_frozen_part=0.00000000 Properties=species:S:1:pos:R:3:velocities:R:3:Z:I:1
H         2.73778816       4.86077374       9.12182234         0.00000000       0.00000000       0.00000000          1
H        13.14824853       1.64040012       4.28347397         0.00000000       0.00000000       0.00000000          1
H        13.48890884       8.46314780       9.82059100         0.00000000       0.00000000       0.00000000          1
H         4.32614660       3.94003092       3.98235343         0.00000000       0.00000000       0.00000000          1
H         7.28147844       9.01399137      12.42342903         0.00000000       0.00000000       0.00000000          1
H        10.99116174       6.62869338       2.06694593         0.00000000       0.00000000       0.00000000          1
6
pbc=[F, F, F] list_num_par=6 frozen=false iter=59 energy=-0.01124532 Lattice="15.00000000 0.00000000 0.00000000 0.00000000 15.00000000 0.00000000 0.00000000 0.00000000 15.00000000" energy_frozen_part=0.00000000 Properties=species:S:1:pos:R:3:velocities:R:3:Z:I:1
H         0.96867579       8.00346206       6.09233333         0.00000000       0.00000000       0.00000000          1
H         7.93182127      13.57962973       5.84116007         0.00000000       0.00000000       0.00000000          1
H         6.60348703       1.12455016       6.64728574         0.00000000       0.00000000       0.00000000          1
H        13.42057665       1.56499381       8.29894820         0.00000000       0.00000000       0.00000000          1
H         2.84543869      14.79375679       3.80867176         0.00000000       0.00000000       0.00000000          1
H         8.42767889       5.18201473       9.24467107         0.00000000       0.00000000       0.00000000          1
6
pbc=[F, F, F] list_num_par=6 frozen=false iter=69 energy=-0.01531768 Lattice="15.00000000 0.00000000 0.00000000 0.00000000 15.00000000 0.00000000 0.00000000 0.00000000 15.00000000" energy_frozen_part=0.00000000 Properties=species:S:1:pos:R:3:velocities:R:3:Z:I:1
H         6.16056846       6.34451465       5.81246373         0.00000000       0.00000000       0.00000000          1
H        13.82198908      12.98588274      11.74274164         0.00000000       0.00000000       0.00000000          1
H         6.01717412      14.32509115      12.63282635         0.00000000       0.00000000       0.00000000          1
H        13.69953440       2.33742090       4.09315451         0.00000000       0.00000000       0.00000000          1
H         2.54184427      11.80605928      12.48774973         0.00000000       0.00000000       0.00000000          1
H         0.78735498       1.27601122      13.83649449         0.00000000       0.00000000       0.00000000          1
6
pbc=[F, F, F] list_num_par=6 frozen=false iter=79 energy=-0.01834781 Lattice="15.00000000 0.00000000 0.00000000 0.00000000 15.00000000 0.00000000 0.00000000 0.00000000 15.00000000" energy_frozen_part=0.00000000 Properties=species:S:1:pos:R:3:velocities:R:3:Z:I:1
H        11.34251073       7.34175217       0.36956437         0.00000000       0.00000000       0.00000000          1
H         5.14656127      10.80753530       3.10677663         0.00000000       0.00000000       0.00000000          1
H         5.44787661       0.65609867      13.55146276         0.00000000       0.00000000       0.00000000          1
H        12.60361274      11.96377815      14.00010624         0.00000000       0.00000000       0.00000000          1
H         4.87724860       9.63214608      13.00202447         0.00000000       0.00000000       0.00000000          1
H        13.38729082      10.57803465      10.14240869         0.00000000       0.00000000       0.00000000          1
6
pbc=[F, F, F] list_num_par=6 frozen=false iter=89 energy=-0.02198827 Lattice="15.00000000 0.00000000 0.00000000 0.00000000 15.00000000 0.00000000 0.00000000 0.00000000 15.00000000" energy_frozen_part=0.00000000 Properties=species:S:1:pos:R:3:velocities:R:3:Z:I:1
H         9.04747801      12.50467513       3.85176548         0.00000000       0.00000000       0.00000000          1
H        11.83576551       7.83592773      12.58804397         0.00000000       0.00000000       0.00000000          1
H         8.94315234      10.19685569       9.70910894         0.00000000       0.00000000       0.00000000          1
H         9.66441429       2.89303839       5.32740402         0.00000000       0.00000000       0.00000000          1
H        12.57909466      13.39519028       7.31948059         0.00000000       0.00000000       0.00000000          1
H         5.05847045       5.20461331       1.76403018         0.00000000       0.00000000       0.00000000          1
6
pbc=[F, F, F] list_num_par=6 frozen=false iter=99 energy=-0.02717861 Lattice="15.00000000 0.00000000 0.00000000 0.00000000 15.00000000 0.00000000 0.00000000 0.00000000 15.00000000" energy_frozen_part=0.00000000 Properties=species:S:1:pos:R:3:velocities:R:3:Z:I:1
H        14.61268921       6.61933883       1.22912203         0.00000000       0.00000000       0.00000000          1
H         9.30599358       8.98948755       8.18779524         0.00000000       0.00000000       0.00000000          1
H         2.13811059      11.72158670       1.20690301         0.00000000       0.00000000       0.00000000          1
H        14.77445187      11.25285628      14.83666368         0.00000000       0.00000000       0.00000000          1
H        11.25235944       8.29095288       0.19926519         0.00000000       0.00000000       0.00000000          1
H         3.61291332       5.07160743       9.14983076         0.00000000       0.00000000       0.00000000          1
6
pbc=[F, F, F] list_num_par=6 frozen=false iter=109 energy=-0.03050619 Lattice="15.00000000 0.00000000 0.00000000 0.00000000 15.00000000 0.00000000 0.00000000 0.00000000 15.00000000" energy_frozen_part=0.00000000 Properties=species:S:1:pos:R:3:velocities:R:3:Z:I:1
H         1.30038989       3.02361971       3.77893766         0.00000000       0.00000000       0.00000000          1
H         7.80923140       7.78512857       2.56249081         0.00000000       0.00000000       0.00000000          1
H        14.82809842       5.25905896      12.45561957         0.00000000       0.00000000       0.00000000          1
H         1.65635421      13.07661755       2.59725194         0.00000000       0.00000000       0.00000000          1
H         6.59370415      10.97239423       4.39986882         0.00000000       0.00000000       0.00000000          1
H         8.87398154       1.11100084      10.73321309         0.00000000       0.00000000       0.00000000          1
6
pbc=[F, F, F] list_num_par=6 frozen=false iter=119 energy=-0.03376022 Lattice="15.00000000 0.00000000 0.00000000 0.00000000 15.00000000 0.00000000 0.00000000 0.00000000 15.00000000" energy_frozen_part=0.00000000 Properties=species:S:1:pos:R:3:velocities:R:3:Z:I:1
H         6.92045876       8.23278806       1.78440043         0.00000000       0.00000000       0.00000000          1
H         3.26008724      12.34438748       7.43459396         0.00000000       0.00000000       0.00000000          1
H         0.08078452       3.98072066       9.95445947         0.00000000       0.00000000       0.00000000          1
H        13.16847668      10.01404019       1.01846852         0.00000000       0.00000000       0.00000000          1
H         6.90518401      11.83031193       6.49946496         0.00000000       0.00000000       0.00000000          1
H        11.37576805      13.72657008      13.38576771         0.00000000       0.00000000       0.00000000          1
6
pbc=[F, F, F] list_num_par=6 frozen=false iter=129 energy=-0.03962002 Lattice="15.00000000 0.00000000 0.00000000 0.00000000 15.00000000 0.00000000 0.00000000 0.00000000 15.00000000" energy_frozen_part=0.00000000 Properties=species:S:1:pos:R:3:velocities:R:3:Z:I:1
H         1.50471974       6.37030313      14.89693760         0.00000000       0.00000000       0.00000000          1
H         3.90572235       3.73149745       8.09340518         0.00000000       0.00000000       0.00000000          1
H         3.99583874       4.73887698       0.12456802         0.00000000       0.00000000       0.00000000          1
H         7.97804651       6.99607188      12.77225542         0.00000000       0.00000000       0.00000000          1
H         1.62839904       3.57024658      12.22869474         0.00000000       0.00000000       0.00000000          1
H         4.77899966      12.44354298      10.85089559         0.00000000       0.00000000       0.00000000          1
6
pbc=[F, F, F] list_num_par=6 frozen=false iter=139 energy=-0.04192771 Lattice="15.00000000 0.00000000 0.00000000 0.00000000 15.00000000 0.00000000 0.00000000 0.00000000 15.00000000" energy_frozen_part=0.00000000 Properties=species:S:1:pos:R:3:velocities:R:3:Z:I:1
H        14.35813431       6.88267098       6.88169165         0.00000000       0.00000000       0.00000000          1
H        14.04810827       7.39483345       0.86046390         0.00000000       0.00000000       0.00000000          1
H         0.62066076       3.28927071      12.13976022         0.00000000       0.00000000       0.00000000          1
H        13.53578601      11.64023939       7.56083425         0.00000000       0.00000000       0.00000000          1
H         1.96098694       9.00152714       0.13415180         0.00000000       0.00000000       0.00000000          1
H        10.29702635      13.35900246       6.80853256         0.00000000       0.00000000       0.00000000          1
6
pbc=[F, F, F] list_num_par=6 frozen=false iter=149 energy=-0.04686328 Lattice="15.00000000 0.00000000 0.00000000 0.00000000 15.00000000 0.00000000 0.00000000 0.00000000 15.00000000" energy_frozen_part=0.00000000 Properties=species:S:1:pos:R:3:velocities:R:3:Z:I:1
H         1.34262429       5.23785704      10.43861899         0.00000000       0.00000000       0.00000000          1
H         9.28951553      13.55378206       7.84975373         0.00000000       0.00000000       0.00000000          1
H         4.47266171      14.68285079      12.12545646         0.00000000       0.00000000       0.00000000          1
H        11.94764494       3.57232757       0.19740361         0.00000000       0.00000000       0.00000000          1
H         2.51291553      13.31588211      12.91482781         0.00000000       0.00000000       0.00000000          1
H         3.60089928       8.17945774       9.46225664         0.00000000       0.00000000       0.00000000          1
6
pbc=[F, F, F] list_num_par=6 frozen=false iter=159 energy=-0.05362600 Lattice="15.00000000 0.00000000 0.00000000 0.00000000 15.00000000 0.00000000 0.00000000 0.00000000 15.00000000" energy_frozen_part=0.00000000 Properties=species:S:1:pos:R:3:velocities:R:3:Z:I:1
H        12.78377807      12.39747405       9.21493631         0.00000000       0.00000000       0.00000000          1
H         9.89445052      10.34003810      13.76852333         0.00000000       0.00000000       0.00000000          1
H         0.40667346       1.36944065      12.68573338         0.00000000       0.00000000       0.00000000          1
H         3.36759232       0.72408844      14.34054037         0.00000000       0.00000000       0.00000000          1
H         9.29598394       6.38044093       1.51561820         0.00000000       0.00000000       0.00000000          1
H         5.06616234      10.71598819       1.56787853         0.00000000       0.00000000       0.00000000          1
6
pbc=[F, F, F] list_num_par=6 frozen=false iter=169 energy=-0.06018164 Lattice="15.00000000 0.00000000 0.00000000 0.00000000 15.00000000 0.00000000 0.00000000 0.00000000 15.00000000" energy_frozen_part=0.00000000 Properties=species:S:1:pos:R:3:velocities:R:3:Z:I:1
H         3.27215312      14.72467204       5.55832483         0.00000000       0.00000000       0.00000000          1
H        14.79043052       3.56445431       6.47663125         0.00000000       0.00000000       0.00000000          1
H         7.23642850       7.60656986      10.81501476         0.00000000       0.00000000       0.00000000          1
H        10.37391542       5.56055000       7.10577015         0.00000000       0.00000000       0.00000000          1
H        12.55962132       8.40929790       6.96889568         0.00000000       0.00000000       0.00000000          1
H         5.88351088       2.49865665      12.50521646         0.00000000       0.00000000       0.00000000          1
6
pbc=[F, F, F] list_num_par=6 frozen=false iter=179 energy=-0.06621057 Lattice="15.00000000 0.00000000 0.00000000 0.00000000 15.00000000 0.00000000 0.00000000 0.00000000 15.00000000" energy_frozen_part=0.00000000 Properties=species:S:1:pos:R:3:velocities:R:3:Z:I:1
H         2.34329435       9.16586689      10.43817936         0.00000000       0.00000000       0.00000000          1
H         2.86541716      12.54281519      10.81961536         0.00000000       0.00000000       0.00000000          1
H         6.48164615       8.18458506      12.35648175         0.00000000       0.00000000       0.00000000          1
H        12.67752123      13.61807026       3.14972730         0.00000000       0.00000000       0.00000000          1
H         3.55096523       2.63246857      13.18720521         0.00000000       0.00000000       0.00000000          1
H         7.48962041      10.76694119       3.99303750         0.00000000       0.00000000       0.00000000          1
6
pbc=[F, F, F] list_num_par=6 frozen=false iter=189 energy=-0.07497301 Lattice="15.00000000 0.00000000 0.00000000 0.00000000 15.00000000 0.00000000 0.00000000 0.00000000 15.00000000" energy_frozen_part=0.00000000 Properties=species:S:1:pos:R:3:velocities:R:3:Z:I:1
H         8.31202602       1.95184096       8.73308470         0.00000000       0.00000000       0.00000000          1
H        14.75796245       8.32854947       4.53178857         0.00000000       0.00000000       0.00000000          1
H        11.11466660       3.17061323       2.66754149         0.00000000       0.00000000       0.00000000          1
H        13.34174747      10.24196610       9.56392714         0.00000000       0.00000000       0.00000000          1
H         3.75227054       6.43221690      14.93290517         0.00000000       0.00000000       0.00000000          1
H        12.48769505       7.11560531       9.13845532         0.00000000       0.00000000       0.00000000          1
6
pbc=[F, F, F] list_num_par=6 frozen=false iter=199 energy=-0.07895765 Lattice="15.00000000 0.00000000 0.00000000 0.00000000 15.00000000 0.00000000 0.00000000 0.00000000 15.00000000" energy_frozen_part=0.00000000 Properties=species:S:1:pos:R:3:velocities:R:3:Z:I:1
H         1.46706819       9.18572884      11.43821293         0.00000000       0.00000000       0.00000000          1
H        14.12836121      14.69227431       4.55821193         0.00000000       0.00000000       0.00000000          1
H         9.18927495       6.25636116       2.48816233         0.00000000       0.00000000       0.00000000          1
H         6.59479057       8.03110580       3.21920048         0.00000000       0.00000000       0.00000000          1
H        11.69073080       7.73762141       7.38442290         0.00000000       0.00000000       0.00000000          1
H         5.96710178      11.16692859      11.03544974         0.00000000       0.00000000       0.00000000          1
6
pbc=[F, F, F] list_num_par=6 frozen=false iter=209 energy=-0.08199579 Lattice="15.00000000 0.00000000 0.00000000 0.00000000 15.00000000 0.00000000 0.00000000 0.00000000 15.00000000" energy_frozen_part=0.00000000 Properties=species:S:1:pos:R:3:velocities:R:3:Z:I:1
H         0.80391737       0.61684754       6.15529773         0.00000000       0.00000000       0.00000000          1
H        10.36803859      11.23063652       9.86228080         0.00000000       0.00000000       0.00000000          1
H        10.59140523       7.89992612      12.25707424         0.00000000       0.00000000       0.00000000          1
H         8.48370383       3.84057395       2.44879407         0.00000000       0.00000000       0.00000000          1
H         7.53440313      14.01126978      12.32173080         0.00000000       0.00000000       0.00000000          1
H         8.65527044       9.40417118       7.45158081         0.00000000       0.00000000       0.00000000          1
6
pbc=[F, F, F] list_num_par=6 frozen=false iter=219 energy=-0.08722717 Lattice="15.00000000 0.00000000 0.00000000 0.00000000 15.00000000 0.00000000 0.00000000 0.00000000 15.00000000" energy_frozen_part=0.00000000 Properties=species:S:1:pos:R:3:velocities:R:3:Z:I:1
H        13.68671274      12.10839646       2.33276019         0.00000000       0.00000000       0.00000000          1
H         9.24309879       6.49636898      14.32567971         0.00000000       0.00000000       0.00000000          1
H         1.19677834       0.50117355       1.33824967         0.00000000       0.00000000       0.00000000          1
H         7.67369152      11.81082046       1.68477304         0.00000000       0.00000000       0.00000000          1
H         1.88028899       6.55044250       3.11170958         0.00000000       0.00000000       0.00000000          1
H         9.65597386       7.53276220      11.47840562         0.00000000       0.00000000       0.00000000          1
6
pbc=[F, F, F] list_num_par=6 frozen=false iter=229 energy=-0.08982733 Lattice="15.00000000 0.00000000 0.00000000 0.00000000 15.00000000 0.00000000 0.00000000 0.00000000 15.00000000" energy_frozen_part=0.00000000 Properties=species:S:1:pos:R:3:velocities:R:3:Z:I:1
H        11.95036908       7.92289732      14.83765454         0.00000000       0.00000000       0.00000000          1
H         4.67349108       4.96879661      12.54362030         0.00000000       0.00000000       0.00000000          1
H         2.79332350       9.09848485       6.58330412         0.00000000       0.00000000       0.00000000          1
H        10.05137807       4.56607108       6.77911162         0.00000000       0.00000000       0.00000000          1
H         8.98983588      12.39175598       0.89182144         0.00000000       0.00000000       0.00000000          1
H         8.09199456       9.92403348       1.37246362         0.00000000       0.00000000       0.00000000          1
6
pbc=[F, F, F] list_num_par=6 frozen=false iter=239 energy=-0.09476901 Lattice="15.00000000 0.00000000 0.00000000 0.00000000 15.00000000 0.00000000 0.00000000 0.00000000 15.00000000" energy_frozen_part=0.00000000 Properties=species:S:1:pos:R:3:velocities:R:3:Z:I:1
H         7.70481966      13.32470432       6.75375495         0.00000000       0.00000000       0.00000000          1
H        11.67708370       2.04664723       9.23586331         0.00000000       0.00000000       0.00000000          1
H         2.11460280       1.56941917       6.52828389         0.00000000       0.00000000       0.00000000          1
H         9.82709885       6.85258953      14.39822754         0.00000000       0.00000000       0.00000000          1
H         8.45540378      12.03653490       9.45412582         0.00000000       0.00000000       0.00000000          1
H         8.05577325       0.19860853      11.10018210         0.00000000       0.00000000       0.00000000          1
6
pbc=[F, F, F] list_num_par=6 frozen=false iter=249 energy=-0.10069016 Lattice="15.00000000 0.00000000 0.00000000 0.00000000 15.00000000 0.00000000 0.00000000 0.00000000 15.00000000" energy_frozen_part=0.00000000 Properties=species:S:1:pos:R:3:velocities:R:3:Z:I:1
H        13.36057014       0.46656529      11.72240776         0.00000000       0.00000000       0.00000000          1
H        11.50760327      12.35474068      10.99072409         0.00000000       0.00000000       0.00000000          1
H         3.13481757       4.80613151      12.86059580         0.00000000       0.00000000       0.00000000          1
H         3.32693115      10.24546683       9.41873432         0.00000000       0.00000000       0.00000000          1
H         2.34105333      13.50088679       2.81137105         0.00000000       0.00000000       0.00000000          1
H        10.13970032      13.24076841       8.77406902         0.00000000       0.00000000       0.00000000          1
6
pbc=[F, F, F] list_num_par=6 frozen=false iter=259 energy=-0.10297736 Lattice="15.00000000 0.00000000 0.00000000 0.00000000 15.00000000 0.00000000 0.00000000 0.00000000 15.00000000" energy_frozen_part=0.00000000 Properties=species:S:1:pos:R:3:velocities:R:3:Z:I:1
H        14.32135789       2.79338977       8.34844481         0.00000000       0.00000000       0.00000000          1
H         6.20409599       0.57551428       0.01937773         0.00000000       0.00000000       0.00000000          1
H         6.07369816       3.91717834       5.51117787         0.00000000       0.00000000       0.00000000          1
H         9.76952062       9.40284703       6.20378986         0.00000000       0.00000000       0.00000000          1
H         9.35092484      10.07414205       3.46878777         0.00000000       0.00000000       0.00000000          1
H         3.09388497      14.26113838       4.35069943         0.00000000       0.00000000       0.00000000          1
6
pbc=[F, F, F] list_num_par=6 frozen=false iter=269 energy=-0.10570008 Lattice="15.00000000 0.00000000 0.00000000 0.00000000 15.00000000 0.00000000 0.00000000 0.00000000 15.00000000" energy_frozen_part=0.00000000 Properties=species:S:1:pos:R:3:velocities:R:3:Z:I:1
H         6.85800831      14.03453042      12.02207995         0.00000000       0.00000000       0.00000000          1
H         3.14037488       8.03607195      13.81679731         0.00000000       0.00000000       0.00000000          1
H        10.21480176       9.87934223      10.29982282         0.00000000       0.00000000       0.00000000          1
H         0.06498864       2.31735748      14.66670645         0.00000000       0.00000000       0.00000000          1
H         8.47264370      14.09814328       2.13001098         0.00000000       0.00000000       0.00000000          1
H         9.25086089       7.71701361       8.79036659         0.00000000       0.00000000       0.00000000          1
6
pbc=[F, F, F] list_num_par=6 frozen=false iter=279 energy=-0.10847015 Lattice="15.00000000 0.00000000 0.00000000 0.00000000 15.00000000 0.00000000 0.00000000 0.00000000 15.00000000" energy_frozen_part=0.00000000 Properties=species:S:1:pos:R:3:velocities:R:3:Z:I:1
H        13.94058912       9.83453950       4.58217172         0.00000000       0.00000000       0.00000000          1
H        14.91676088       8.26409107       1.76004276         0.00000000       0.00000000       0.00000000          1
H         2.56203924       4.96685111      14.01930406         0.00000000       0.00000000       0.00000000          1
H        14.02757053      10.04627968       8.01455519         0.00000000       0.00000000       0.00000000          1
H         0.41911376       0.62451886       2.01274207         0.00000000       0.00000000       0.00000000          1
H         0.98072117       6.55637063       1.68337159         0.00000000       0.00000000       0.00000000          1
6
pbc=[F, F, F] list_num_par=6 frozen=false iter=289 energy=-0.11239131 Lattice="15.00000000 0.00000000 0.00000000 0.00000000 15.00000000 0.00000000 0.00000000 0.00000000 15.00000000" energy_frozen_part=0.00000000 Properties=species:S:1:pos:R:3:velocities:R:3:Z:I:1
H         8.27535783      11.93376671      14.44629762         0.00000000       0.00000000       0.00000000          1
H         4.75718064      11.50974848       5.89250123         0.00000000       0.00000000       0.00000000          1
H         9.61436187       9.11084107       3.74605564         0.00000000       0.00000000       0.00000000          1
H        12.14333061       2.53281571       1.98374753         0.00000000       0.00000000       0.00000000          1
H         3.40078527      11.12359210       0.78107382         0.00000000       0.00000000       0.00000000          1
H         9.69784505       7.09666996       1.85985079         0.00000000       0.00000000       0.00000000          1
6
pbc=[F, F, F] list_num_par=6 frozen=false iter=299 energy=-0.11371743 Lattice="15.00000000 0.00000000 0.00000000 0.00000000 15.00000000 0.00000000 0.00000000 0.00000000 15.00000000" energy_frozen_part=0.00000000 Properties=species:S:1:pos:R:3:velocities:R:3:Z:I:1
H        10.35169451       2.14603970       4.99160272         0.00000000       0.00000000       0.00000000          1
H        11.55466071      12.98581403       5.77356963         0.00000000       0.00000000       0.00000000          1
H         0.40843303       7.19974718      10.60599610         0.00000000       0.00000000       0.00000000          1
H         0.55942675       9.87501015      11.53442366         0.00000000       0.00000000       0.00000000          1
H         2.01008682      12.82203910       2.28796110         0.00000000       0.00000000       0.00000000          1
H         7.15386903      12.74145769       5.98989442         0.00000000       0.00000000       0.00000000          1
6
pbc=[F, F, F] list_num_par=6 frozen=false iter=309 energy=-0.11672408 Lattice="15.00000000 0.00000000 0.00000000 0.00000000 15.00000000 0.00000000 0.00000000 0.00000000 15.00000000" energy_frozen_part=0.00000000 Properties=species:S:1:pos:R:3:velocities:R:3:Z:I:1
H         2.33659592       2.10925023       7.21725761         0.00000000       0.00000000       0.00000000          1
H         0.92574681       3.92704347       5.49215745         0.00000000       0.00000000       0.00000000          1