6
pbc=[F, F, F] list_num_par=6 frozen=false iter=9 energy=130.36323831 Lattice="15.00000000 0.00000000 0.00000000 0.00000000 15.00000000 0.00000000 0.00000000 0.00000000 15.00000000" energy_frozen_part=0.00000000 Properties=species:S:1:pos:R:3:velocities:R:3:Z:I:1
H         5.37361538       5.61484593      12.60124828         0.00000000       0.00000000       0.00000000          1
H        13.13701621       6.96617867      13.56750545         0.00000000       0.00000000       0.00000000          1
H         6.64273381      10.03238234       8.63264975         0.00000000       0.00000000       0.00000000          1
H         6.04015202      11.01740108       7.61913515         0.00000000       0.00000000       0.00000000          1
H         1.45216532      12.03350759      11.52944361         0.00000000       0.00000000       0.00000000          1
H         1.72457323       1.09871404       4.20103721         0.00000000       0.00000000       0.00000000          1
6
pbc=[F, F, F] list_num_par=6 frozen=false iter=19 energy=1.68250690 Lattice="15.00000000 0.00000000 0.00000000 0.00000000 15.00000000 0.00000000 0.00000000 0.00000000 15.00000000" energy_frozen_part=0.00000000 Properties=species:S:1:pos:R:3:velocities:R:3:Z:I:1
H        12.55258325      12.00979063       2.15268833         0.00000000       0.00000000       0.00000000          1
H        12.51986764       6.09497661       8.43348997         0.00000000       0.00000000       0.00000000          1
H        12.21909275      10.48625076       0.69458400         0.00000000       0.00000000       0.00000000          1
H         1.16508029      12.20390758       8.89762557         0.00000000       0.00000000       0.00000000          1
H         7.42709011       3.39153529       4.63252631         0.00000000       0.00000000       0.00000000          1
H         7.44805567       1.38795295       6.04307021         0.00000000       0.00000000       0.00000000          1
6
pbc=[F, F, F] list_num_par=6 frozen=false iter=29 energy=-0.00297294 Lattice="15.00000000 0.00000000 0.00000000 0.00000000 15.00000000 0.00000000 0.00000000 0.00000000 15.00000000" energy_frozen_part=0.00000000 Properties=species:S:1:pos:R:3:velocities:R:3:Z:I:1
H         0.04518458      12.11446058       2.75313762         0.00000000       0.00000000       0.00000000          1
H         9.08265016      10.29208539      12.78224383         0.00000000       0.00000000       0.00000000          1
H         5.22990615       5.06808230       5.80348739         0.00000000       0.00000000       0.00000000          1
H        14.35058769       2.85367182      12.01465293         0.00000000       0.00000000       0.00000000          1
H         6.93973204       7.62816249       0.18150331         0.00000000       0.00000000       0.00000000          1
H         4.33819799      13.48116477       9.40670618         0.00000000       0.00000000       0.00000000          1
6
pbc=[F, F, F] list_num_par=6 frozen=false iter=39 energy=-0.00566047 Lattice="15.00000000 0.00000000 0.00000000 0.00000000 15.00000000 0.00000000 0.00000000 0.00000000 15.00000000" energy_frozen_part=0.00000000 Properties=species:S:1:pos:R:3:velocities:R:3:Z:I:1
H         0.15669372       6.07973764      12.03553959         0.00000000       0.00000000       0.00000000          1
H         6.01628944      13.21837554       9.59975328         0.00000000       0.00000000       0.00000000          1
H         1.15642321       1.39862380      13.50446728         0.00000000       0.00000000       0.00000000          1
H         0.62779451      10.03896327       9.59407603         0.00000000       0.00000000       0.00000000          1
H         8.41376232       3.34828469       8.94785779         0.00000000       0.00000000       0.00000000          1
H         0.53928198       6.32014791       9.61846731         0.00000000       0.00000000       0.00000000          1
6
pbc=[F, F, F] list_num_par=6 frozen=false iter=49 energy=-0.00930650 Lattice="15.00000000 0.00000000 0.00000000 0.00000000 15.00000000 0.00000000 0.00000000 0.00000000 15.00000000" energy_frozen_part=0.00000000 Properties=species:S:1:pos:R:3:velocities:R:3:Z:I:1
H        14.00444469       3.47676310      12.95722207         0.00000000       0.00000000       0.00000000          1
H         6.73547796       2.43985663      11.52558446         0.00000000       0.00000000       0.00000000          1
H        14.43491665       9.01037435       3.49981456         0.00000000       0.00000000       0.00000000          1
H         2.99321860      14.20911313       6.77569193         0.00000000       0.00000000       0.00000000          1
H        10.67164540       0.51093542       9.13216883         0.00000000       0.00000000       0.00000000          1
H         7.58139648       6.69832965       1.89349978         0.00000000       0.00000000       0.00000000          1
6
pbc=[F, F, F] list_num_par=6 frozen=false iter=59 energy=-0.01181152 Lattice="15.00000000 0.00000000 0.00000000 0.00000000 15.00000000 0.00000000 0.00000000 0.00000000 15.00000000" energy_frozen_part=0.00000000 Properties=species:S:1:pos:R:3:velocities:R:3:Z:I:1
H         0.43564743       6.67342809       2.27200553         0.00000000       0.00000000       0.00000000          1
H        13.98019413       8.28339388       6.27995911         0.00000000       0.00000000       0.00000000          1
H         8.56875038       3.59006812       7.04340742         0.00000000       0.00000000       0.00000000          1
H        14.12178992       2.04321036       0.62451681         0.00000000       0.00000000       0.00000000          1
H        13.66338812       2.17936069       5.69991454         0.00000000       0.00000000       0.00000000          1
H         0.80957391       7.58498423      10.66659769         0.00000000       0.00000000       0.00000000          1
6
pbc=[F, F, F] list_num_par=6 frozen=false iter=69 energy=-0.01454018 Lattice="15.00000000 0.00000000 0.00000000 0.00000000 15.00000000 0.00000000 0.00000000 0.00000000 15.00000000" energy_frozen_part=0.00000000 Properties=species:S:1:pos:R:3:velocities:R:3:Z:I:1
H         8.55971077      11.15147838      12.82556805         0.00000000       0.00000000       0.00000000          1
H         6.34183187      12.02639461       1.91874016         0.00000000       0.00000000       0.00000000          1
H        11.88267839       8.40645051      13.56842766         0.00000000       0.00000000       0.00000000          1
H         9.88956056       2.50172844       1.66015019         0.00000000       0.00000000       0.00000000          1
H        12.78140055      10.44532689       1.17532367         0.00000000       0.00000000       0.00000000          1
H         2.80777587       3.91254742       8.72640041         0.00000000       0.00000000       0.00000000          1
6
pbc=[F, F, F] list_num_par=6 frozen=false iter=79 energy=-0.01746725 Lattice="15.00000000 0.00000000 0.00000000 0.00000000 15.00000000 0.00000000 0.00000000 0.00000000 15.00000000" energy_frozen_part=0.00000000 Properties=species:S:1:pos:R:3:velocities:R:3:Z:I:1
H         7.37277633       3.07976396       3.04599142         0.00000000       0.00000000       0.00000000          1
H        14.29291336      11.22154706      11.50481568         0.00000000       0.00000000       0.00000000          1
H         0.57923406      14.25697862       3.89082446         0.00000000       0.00000000       0.00000000          1
H         7.16888815       3.75922315      12.17163832         0.00000000       0.00000000       0.00000000          1
H        14.82421751       4.50774449       7.41661656         0.00000000       0.00000000       0.00000000          1
H        10.91889088       5.32150862       2.32820445         0.00000000       0.00000000       0.00000000          1
6
pbc=[F, F, F] list_num_par=6 frozen=false iter=89 energy=-0.01992398 Lattice="15.00000000 0.00000000 0.00000000 0.00000000 15.00000000 0.00000000 0.00000000 0.00000000 15.00000000" energy_frozen_part=0.00000000 Properties=species:S:1:pos:R:3:velocities:R:3:Z:I:1
H         1.57250547       2.08345560      14.15260924         0.00000000       0.00000000       0.00000000          1
H         3.91621921       7.71391576       6.78893121         0.00000000       0.00000000       0.00000000          1
H         5.58800532      14.80120652      10.93265883         0.00000000       0.00000000       0.00000000          1
H        12.78025590      14.10890059       2.38972363         0.00000000       0.00000000       0.00000000          1
H        14.76782703       6.52035583      12.92778291         0.00000000       0.00000000       0.00000000          1
H         1.78638963      10.50890555       4.68665064         0.00000000       0.00000000       0.00000000          1
6
pbc=[F, F, F] list_num_par=6 frozen=false iter=99 energy=-0.02193396 Lattice="15.00000000 0.00000000 0.00000000 0.00000000 15.00000000 0.00000000 0.00000000 0.00000000 15.00000000" energy_frozen_part=0.00000000 Properties=species:S:1:pos:R:3:velocities:R:3:Z:I:1
H         1.92728794       6.17194101      12.04375722         0.00000000       0.00000000       0.00000000          1
H         8.45331559       8.78859459      11.00933792         0.00000000       0.00000000       0.00000000          1
H         1.02999962       9.35680229      14.84503428         0.00000000       0.00000000       0.00000000          1
H         5.36581418      12.92603763       1.79524041         0.00000000       0.00000000       0.00000000          1
H         6.80545826       4.45486730      14.60891283         0.00000000       0.00000000       0.00000000          1
H         7.37127463      14.81224594       7.92197146         0.00000000       0.00000000       0.00000000          1
6
pbc=[F, F, F] list_num_par=6 frozen=false iter=109 energy=-0.02511958 Lattice="15.00000000 0.00000000 0.00000000 0.00000000 15.00000000 0.00000000 0.00000000 0.00000000 15.00000000" energy_frozen_part=0.00000000 Properties=species:S:1:pos:R:3:velocities:R:3:Z:I:1
H         4.30824191       0.45790065       1.85222367         0.00000000       0.00000000       0.00000000          1
H        10.72853538       7.54265624       2.24446000         0.00000000       0.00000000       0.00000000          1
H         2.64953688      13.83391879       7.30351422         0.00000000       0.00000000       0.00000000          1
H        11.25680742       7.70095350      12.99078571         0.00000000       0.00000000       0.00000000          1
H         3.34216945       8.15328756       8.21464134         0.00000000       0.00000000       0.00000000          1
H         8.49710728      10.28105721       4.19566487         0.00000000       0.00000000       0.00000000          1
6
pbc=[F, F, F] list_num_par=6 frozen=false iter=119 energy=-0.02797114 Lattice="15.00000000 0.00000000 0.00000000 0.00000000 15.00000000 0.00000000 0.00000000 0.00000000 15.00000000" energy_frozen_part=0.00000000 Properties=species:S:1:pos:R:3:velocities:R:3:Z:I:1
H         3.01254550       6.02766714       0.21934966         0.00000000       0.00000000       0.00000000          1
H        14.99783535       9.33457877       6.16718670         0.00000000       0.00000000       0.00000000          1
H         0.06237836      14.84394618       9.70586483         0.00000000       0.00000000       0.00000000          1
H         2.94287550       5.91203377       4.77864857         0.00000000       0.00000000       0.00000000          1
H        13.28274253      13.16848560       6.61999201         0.00000000       0.00000000       0.00000000          1
H         3.35629957       6.57649109      11.32248765         0.00000000       0.00000000       0.00000000          1
6
pbc=[F, F, F] list_num_par=6 frozen=false iter=129 energy=-0.03228693 Lattice="15.00000000 0.00000000 0.00000000 0.00000000 15.00000000 0.00000000 0.00000000 0.00000000 15.00000000" energy_frozen_part=0.00000000 Properties=species:S:1:pos:R:3:velocities:R:3:Z:I:1
H         9.10981113       9.77220104      12.67014354         0.00000000       0.00000000       0.00000000          1
H         9.15173050      13.49764596      12.14419740         0.00000000       0.00000000       0.00000000          1
H         9.37795945       9.39124035       4.39746537         0.00000000       0.00000000       0.00000000          1
H         1.08863402       6.94201639       6.24755157         0.00000000       0.00000000       0.00000000          1
H         0.71330607       4.87997688      13.45014342         0.00000000       0.00000000       0.00000000          1
H        10.70320301       0.60774098      10.81466130         0.00000000       0.00000000       0.00000000          1
6
pbc=[F, F, F] list_num_par=6 frozen=false iter=139 energy=-0.03995201 Lattice="15.00000000 0.00000000 0.00000000 0.00000000 15.00000000 0.00000000 0.00000000 0.00000000 15.00000000" energy_frozen_part=0.00000000 Properties=species:S:1:pos:R:3:velocities:R:3:Z:I:1
H         9.62516215      13.38781397      11.17058303         0.00000000       0.00000000       0.00000000          1
H        12.88550312      12.13748601      10.24759853         0.00000000       0.00000000       0.00000000          1
H         6.60699606      10.22707139       0.85126356         0.00000000       0.00000000       0.00000000          1
H         5.79826953       0.54833283       6.67364479         0.00000000       0.00000000       0.00000000          1
H         0.98818001       5.88159100      14.60604871         0.00000000       0.00000000       0.00000000          1
H        10.32981353       2.04096055      11.50444823         0.00000000       0.00000000       0.00000000          1
6
pbc=[F, F, F] list_num_par=6 frozen=false iter=149 energy=-0.04568629 Lattice="15.00000000 0.00000000 0.00000000 0.00000000 15.00000000 0.00000000 0.00000000 0.00000000 15.00000000" energy_frozen_part=0.00000000 Properties=species:S:1:pos:R:3:velocities:R:3:Z:I:1
H         2.66936648       0.70518693       9.94521127         0.00000000       0.00000000       0.00000000          1
H         0.42796040       8.57222809      13.24653569         0.00000000       0.00000000       0.00000000          1
H        11.39730807       4.51596622       4.37009010         0.00000000       0.00000000       0.00000000          1
H        10.62979932       8.38775133       3.33716423         0.00000000       0.00000000       0.00000000          1
H         9.49080258      11.93454441       4.79095149         0.00000000       0.00000000       0.00000000          1
H        11.21019030      11.22903831      10.31871975         0.00000000       0.00000000       0.00000000          1
6
pbc=[F, F, F] list_num_par=6 frozen=false iter=159 energy=-0.04994293 Lattice="15.00000000 0.00000000 0.00000000 0.00000000 15.00000000 0.00000000 0.00000000 0.00000000 15.00000000" energy_frozen_part=0.00000000 Properties=species:S:1:pos:R:3:velocities:R:3:Z:I:1
H         0.73239178      14.69684259       3.12033646         0.00000000       0.00000000       0.00000000          1
H         7.74630464      14.89077247      14.84782030         0.00000000       0.00000000       0.00000000          1
H        11.00671202       3.79169975       9.70492503         0.00000000       0.00000000       0.00000000          1
H         2.53658973       7.44394532       8.13202234         0.00000000       0.00000000       0.00000000          1
H         1.55731605      12.65266824       0.35116118         0.00000000       0.00000000       0.00000000          1
H         5.22208056      11.07417053      10.81578807         0.00000000       0.00000000       0.00000000          1
6
pbc=[F, F, F] list_num_par=6 frozen=false iter=169 energy=-0.05581798 Lattice="15.00000000 0.00000000 0.00000000 0.00000000 15.00000000 0.00000000 0.00000000 0.00000000 15.00000000" energy_frozen_part=0.00000000 Properties=species:S:1:pos:R:3:velocities:R:3:Z:I:1
H        14.81017177       7.20352490       7.29511229         0.00000000       0.00000000       0.00000000          1
H         2.99556279       8.10675221       6.11853805         0.00000000       0.00000000       0.00000000          1
H        11.91084780      14.13522403      11.39048044         0.00000000       0.00000000       0.00000000          1
H         0.28657395       7.07068989       7.83929422         0.00000000       0.00000000       0.00000000          1
H        11.21192247       1.10032853       1.00585327         0.00000000       0.00000000       0.00000000          1
H         9.50207732       7.41712463      14.82307266         0.00000000       0.00000000       0.00000000          1
6
pbc=[F, F, F] list_num_par=6 frozen=false iter=179 energy=-0.06137704 Lattice="15.00000000 0.00000000 0.00000000 0.00000000 15.00000000 0.00000000 0.00000000 0.00000000 15.00000000" energy_frozen_part=0.00000000 Properties=species:S:1:pos:R:3:velocities:R:3:Z:I:1
H        11.22092054       3.65443782       7.12971465         0.00000000       0.00000000       0.00000000          1
H         6.15709651       8.52525964       1.25145021         0.00000000       0.00000000       0.00000000          1
H         9.19610380       1.75183447       1.43209497         0.00000000       0.00000000       0.00000000          1
H        12.10956798       1.78692528       3.62593518         0.00000000       0.00000000       0.00000000          1
H         1.48212849      10.74532140       4.26062208         0.00000000       0.00000000       0.00000000          1
H         0.32893352       5.05812148      14.74150428         0.00000000       0.00000000       0.00000000          1
6
pbc=[F, F, F] list_num_par=6 frozen=false iter=189 energy=-0.06571234 Lattice="15.00000000 0.00000000 0.00000000 0.00000000 15.00000000 0.00000000 0.00000000 0.00000000 15.00000000" energy_frozen_part=0.00000000 Properties=species:S:1:pos:R:3:velocities:R:3:Z:I:1
H         6.64972528       5.07121839       1.53024060         0.00000000       0.00000000       0.00000000          1
H        10.73146926       6.65976185       9.40770559         0.00000000       0.00000000       0.00000000          1
H         4.63173164      14.20746163       9.08297411         0.00000000       0.00000000       0.00000000          1
H         3.53026313       5.80906373       0.82144414         0.00000000       0.00000000       0.00000000          1
H        14.22470108      14.67237192      12.85347000         0.00000000       0.00000000       0.00000000          1
H         5.59918941       4.78636473      10.93549522         0.00000000       0.00000000       0.00000000          1
6
pbc=[F, F, F] list_num_par=6 frozen=false iter=199 energy=-0.06990965 Lattice="15.00000000 0.00000000 0.00000000 0.00000000 15.00000000 0.00000000 0.00000000 0.00000000 15.00000000" energy_frozen_part=0.00000000 Properties=species:S:1:pos:R:3:velocities:R:3:Z:I:1
H         9.07348926       8.06492742       7.16622732         0.00000000       0.00000000       0.00000000          1
H         7.80346767       1.71020851      12.81884971         0.00000000       0.00000000       0.00000000          1
H         4.32447374       4.43138376       0.51498337         0.00000000       0.00000000       0.00000000          1
H         3.35035750      10.61933071       7.19163185         0.00000000       0.00000000       0.00000000          1
H         9.91943026      13.49287063      11.11413164         0.00000000       0.00000000       0.00000000          1
H        11.24460505      10.18568890       5.98900451         0.00000000       0.00000000       0.00000000          1
6
pbc=[F, F, F] list_num_par=6 frozen=false iter=209 energy=-0.07428219 Lattice="15.00000000 0.00000000 0.00000000 0.00000000 15.00000000 0.00000000 0.00000000 0.00000000 15.00000000" energy_frozen_part=0.00000000 Properties=species:S:1:pos:R:3:velocities:R:3:Z:I:1
H         7.07018246       3.05145749       6.56983801         0.00000000       0.00000000       0.00000000          1
H         0.34293475       4.88138667       6.67491776         0.00000000       0.00000000       0.00000000          1
H         1.88802861       7.14826487       1.98576846         0.00000000       0.00000000       0.00000000          1
H         9.17694257       9.24141553       5.78876711         0.00000000       0.00000000       0.00000000          1
H         1.62089339       3.66388747       3.47572465         0.00000000       0.00000000       0.00000000          1
H        13.49427602       0.24055876       9.76783262         0.00000000       0.00000000       0.00000000          1
6
pbc=[F, F, F] list_num_par=6 frozen=false iter=219 energy=-0.08073391 Lattice="15.00000000 0.00000000 0.00000000 0.00000000 15.00000000 0.00000000 0.00000000 0.00000000 15.00000000" energy_frozen_part=0.00000000 Properties=species:S:1:pos:R:3:velocities:R:3:Z:I:1
H         5.44024207      11.14793578       5.95752035         0.00000000       0.00000000       0.00000000          1
H        13.66517872      14.44510577       8.40434975         0.00000000       0.00000000       0.00000000          1
H         4.42504863       6.86342665      12.82372325         0.00000000       0.00000000       0.00000000          1
H        14.87678010      10.42141442      10.77818993         0.00000000       0.00000000       0.00000000          1
H        14.57246375      14.32492422      12.46539605         0.00000000       0.00000000       0.00000000          1
H         6.92200273      12.87190170       8.78342836         0.00000000       0.00000000       0.00000000          1
6
pbc=[F, F, F] list_num_par=6 frozen=false iter=229 energy=-0.08631559 Lattice="15.00000000 0.00000000 0.00000000 0.00000000 15.00000000 0.00000000 0.00000000 0.00000000 15.00000000" energy_frozen_part=0.00000000 Properties=species:S:1:pos:R:3:velocities:R:3:Z:I:1
H        13.30509083      13.03214076       2.94345325         0.00000000       0.00000000       0.00000000          1
H        12.30746759       9.06403187      13.09393997         0.00000000       0.00000000       0.00000000          1
H         1.46185867       2.56596837       2.52135768         0.00000000       0.00000000       0.00000000          1
H         7.16477034       7.42380177       1.42641091         0.00000000       0.00000000       0.00000000          1
H         8.17598295      13.03335031       7.12031278         0.00000000       0.00000000       0.00000000          1
H        10.41589318      14.77331185       5.62289453         0.00000000       0.00000000       0.00000000          1
6
pbc=[F, F, F] list_num_par=6 frozen=false iter=239 energy=-0.08925853 Lattice="15.00000000 0.00000000 0.00000000 0.00000000 15.00000000 0.00000000 0.00000000 0.00000000 15.00000000" energy_frozen_part=0.00000000 Properties=species:S:1:pos:R:3:velocities:R:3:Z:I:1
H        10.11231464      14.14995315       9.20775973         0.00000000       0.00000000       0.00000000          1
H         1.39201618       7.34476320       5.41939793         0.00000000       0.00000000       0.00000000          1
H         2.81427680       6.84395069       1.18713207         0.00000000       0.00000000       0.00000000          1
H         3.64223893       5.95659538       6.81350649         0.00000000       0.00000000       0.00000000          1
H         5.09375309       6.31767720       8.79221577         0.00000000       0.00000000       0.00000000          1
H        13.46288537       1.80148466       0.58802368         0.00000000       0.00000000       0.00000000          1
6
pbc=[F, F, F] list_num_par=6 frozen=false iter=249 energy=-0.09296012 Lattice="15.00000000 0.00000000 0.00000000 0.00000000 15.00000000 0.00000000 0.00000000 0.00000000 15.00000000" energy_frozen_part=0.00000000 Properties=species:S:1:pos:R:3:velocities:R:3:Z:I:1
H         7.73192313      10.71345693       9.88144282         0.00000000       0.00000000       0.00000000          1
H         7.82936115       1.44142360       5.29488045         0.00000000       0.00000000       0.00000000          1
H         7.27688001       6.84604251       7.12517756         0.00000000       0.00000000       0.00000000          1
H         5.11831634      11.78716402       8.36761241         0.00000000       0.00000000       0.00000000          1
H        13.91919983      14.34419206      13.33718195         0.00000000       0.00000000       0.00000000          1
H         3.36152448      11.66306695      13.11343707         0.00000000       0.00000000       0.00000000          1
6
pbc=[F, F, F] list_num_par=6 frozen=false iter=259 energy=-0.09589723 Lattice="15.00000000 0.00000000 0.00000000 0.00000000 15.00000000 0.00000000 0.00000000 0.00000000 15.00000000" energy_frozen_part=0.00000000 Properties=species:S:1:pos:R:3:velocities:R:3:Z:I:1
H         7.96949186       3.94813915       3.83044465         0.00000000       0.00000000       0.00000000          1
H        12.10619828      10.30770681      14.96759616         0.00000000       0.00000000       0.00000000          1
H         4.24836589      12.22384024      13.13442919         0.00000000       0.00000000       0.00000000          1
H         6.66122182       4.43004583       1.52711735         0.00000000       0.00000000       0.00000000          1
H        14.26021922      12.65807198       7.05486042         0.00000000       0.00000000       0.00000000          1
H         9.02258970      14.44692013       8.76162328         0.00000000       0.00000000       0.00000000          1
6
pbc=[F, F, F] list_num_par=6 frozen=false iter=269 energy=-0.10009012 Lattice="15.00000000 0.00000000 0.00000000 0.00000000 15.00000000 0.00000000 0.00000000 0.00000000 15.00000000" energy_frozen_part=0.00000000 Properties=species:S:1:pos:R:3:velocities:R:3:Z:I:1
H         5.46884159       5.20114350       7.18078181         0.00000000       0.00000000       0.00000000          1
H        10.64796973      14.43089518       9.36772937         0.00000000       0.00000000       0.00000000          1
H         4.62403424      10.79766335       4.77256211         0.00000000       0.00000000       0.00000000          1
H        10.55004232       7.64659824       5.88600030         0.00000000       0.00000000       0.00000000          1
H         7.15180599       8.05236295       4.76009248         0.00000000       0.00000000       0.00000000          1
H         1.18144231       9.03182662      10.12274420         0.00000000       0.00000000       0.00000000          1
6
pbc=[F, F, F] list_num_par=6 frozen=false iter=279 energy=-0.10258011 Lattice="15.00000000 0.00000000 0.00000000 0.00000000 15.00000000 0.00000000 0.00000000 0.00000000 15.00000000" energy_frozen_part=0.00000000 Properties=species:S:1:pos:R:3:velocities:R:3:Z:I:1
H         6.48330164       6.81605798      14.76775021         0.00000000       0.00000000       0.00000000          1
H        11.42039326       0.29569267      11.20389255         0.00000000       0.00000000       0.00000000          1
H        14.77614059       4.66583750      12.55986476         0.00000000       0.00000000       0.00000000          1
H         8.62035653       5.87362066       2.27646963         0.00000000       0.00000000       0.00000000          1
H         9.27772920       6.89765718      13.97382720         0.00000000       0.00000000       0.00000000          1
H         3.59713014       6.81762404       7.41019617         0.00000000       0.00000000       0.00000000          1
6
pbc=[F, F, F] list_num_par=6 frozen=false iter=289 energy=-0.10516030 Lattice="15.00000000 0.00000000 0.00000000 0.00000000 15.00000000 0.00000000 0.00000000 0.00000000 15.00000000" energy_frozen_part=0.00000000 Properties=species:S:1:pos:R:3:velocities:R:3:Z:I:1
H         9.08347889       2.94540184      10.94066296         0.00000000       0.00000000       0.00000000          1
H         7.29034449       5.54720784       7.55254858         0.00000000       0.00000000       0.00000000          1
H         2.98561566       3.40312996       8.21732222         0.00000000       0.00000000       0.00000000          1
H         0.84535017       8.20896642       9.03673900         0.00000000       0.00000000       0.00000000          1
H         8.16924626       2.64069638       6.49246278         0.00000000       0.00000000       0.00000000          1
H         8.86462395      13.21519536       1.24084577         0.00000000       0.00000000       0.00000000          1
6
pbc=[F, F, F] list_num_par=6 frozen=false iter=299 energy=-0.10722109 Lattice="15.00000000 0.00000000 0.00000000 0.00000000 15.00000000 0.00000000 0.00000000 0.00000000 15.00000000" energy_frozen_part=0.00000000 Properties=species:S:1:pos:R:3:velocities:R:3:Z:I:1
H        13.12712485       1.91641811       1.20998705         0.00000000       0.00000000       0.00000000          1
H         8.46291430       7.64524128       8.54365148         0.00000000       0.00000000       0.00000000          1
H         3.81936071      11.00405329      13.53851050         0.00000000       0.00000000       0.00000000          1
H         6.82357342       5.20203457       8.35673381         0.00000000       0.00000000       0.00000000          1
H        12.23554529      14.94690197      14.19301192         0.00000000       0.00000000       0.00000000          1
H         3.50112780       3.78417840       5.79203177         0.00000000       0.00000000       0.00000000          1
6
pbc=[F, F, F] list_num_par=6 frozen=false iter=309 energy=-0.10972082 Lattice="15.00000000 0.00000000 0.00000000 0.00000000 15.00000000 0.00000000 0.00000000 0.00000000 15.00000000" energy_frozen_part=0.00000000 Properties=species:S:1:pos:R:3:velocities:R:3:Z:I:1
H        14.01228757       3.70370324       1.02761689         0.00000000       0.00000000       0.00000000          1
H         9.30367375       9.82323966       9.66913945         0.00000000       0.00000000       0.00000000          1