6
pbc=[F, F, F] list_num_par=6 frozen=false iter=20000 energy=-1.26974174 Lattice="15.00000000 0.00000000 0.00000000 0.00000000 15.00000000 0.00000000 0.00000000 0.00000000 15.00000000" energy_frozen_part=0.00000000 Properties=species:S:1:pos:R:3:velocities:R:3:Z:I:1
H         3.07485037      12.06267008      10.28640559         0.00000000       0.00000000       0.00000000          1
H         6.78370286      12.95864622       9.26160737         0.00000000       0.00000000       0.00000000          1
H         4.26597170      13.36686126       8.12200516         0.00000000       0.00000000       0.00000000          1
H         5.59257791      11.65444646      11.42599417         0.00000000       0.00000000       0.00000000          1
H         4.77671720      14.23355004      10.72820400         0.00000000       0.00000000       0.00000000          1
H         5.08183067      10.78776225       8.81979806         0.00000000       0.00000000       0.00000000          1
6
pbc=[F, F, F] list_num_par=6 frozen=false iter=20000 energy=-1.26974174 Lattice="15.00000000 0.00000000 0.00000000 0.00000000 15.00000000 0.00000000 0.00000000 0.00000000 15.00000000" energy_frozen_part=0.00000000 Properties=species:S:1:pos:R:3:velocities:R:3:Z:I:1
H         3.07483418      12.06266775      10.28638894         0.00000000       0.00000000       0.00000000          1
H         6.78369527      12.95862992       9.26159917         0.00000000       0.00000000       0.00000000          1
H         4.26597424      13.36684940       8.12199464         0.00000000       0.00000000       0.00000000          1
H         5.59255770      11.65444097      11.42599101         0.00000000       0.00000000       0.00000000          1
H         4.77670849      14.23353942      10.72819763         0.00000000       0.00000000       0.00000000          1
H         5.08182064      10.78775117       8.81979714         0.00000000       0.00000000       0.00000000          1
6
pbc=[F, F, F] list_num_par=6 frozen=false iter=20000 energy=-1.26974174 Lattice="15.00000000 0.00000000 0.00000000 0.00000000 15.00000000 0.00000000 0.00000000 0.00000000 15.00000000" energy_frozen_part=0.00000000 Properties=species:S:1:pos:R:3:velocities:R:3:Z:I:1
H         2.62327237      12.05537445      10.07881518         0.00000000       0.00000000       0.00000000          1
H         6.40083853      13.18882639       9.84682136         0.00000000       0.00000000       0.00000000          1
H         4.12595951      13.56217480       8.26890610         0.00000000       0.00000000       0.00000000          1
H         4.89815008      11.68202552      11.65673423         0.00000000       0.00000000       0.00000000          1
H         4.08128261      14.26442334      10.97245295         0.00000000       0.00000000       0.00000000          1
H         4.94282992      10.97978141       8.95318375         0.00000000       0.00000000       0.00000000          1
6
pbc=[F, F, F] list_num_par=6 frozen=false iter=20000 energy=-1.26974174 Lattice="15.00000000 0.00000000 0.00000000 0.00000000 15.00000000 0.00000000 0.00000000 0.00000000 15.00000000" energy_frozen_part=0.00000000 Properties=species:S:1:pos:R:3:velocities:R:3:Z:I:1
H         3.07480840      12.06266973      10.28651275         0.00000000       0.00000000       0.00000000          1
H         6.78357794      12.95868819       9.26142925         0.00000000       0.00000000       0.00000000          1
H         4.26575974      13.36687201       8.12202287         0.00000000       0.00000000       0.00000000          1
H         5.59263243      11.65449109      11.42591631         0.00000000       0.00000000       0.00000000          1
H         4.77669235      14.23357741      10.72817352         0.00000000       0.00000000       0.00000000          1
H         5.08169439      10.78778329       8.81976349         0.00000000       0.00000000       0.00000000          1
6
pbc=[F, F, F] list_num_par=6 frozen=false iter=20000 energy=-1.26974174 Lattice="15.00000000 0.00000000 0.00000000 0.00000000 15.00000000 0.00000000 0.00000000 0.00000000 15.00000000" energy_frozen_part=0.00000000 Properties=species:S:1:pos:R:3:velocities:R:3:Z:I:1
H         3.07464916      12.06280612      10.28664119         0.00000000       0.00000000       0.00000000          1
H         6.78360383      12.95849528       9.26196979         0.00000000       0.00000000       0.00000000          1
H         4.26596221      13.36670900       8.12217521         0.00000000       0.00000000       0.00000000          1
H         5.59228678      11.65460626      11.42643376         0.00000000       0.00000000       0.00000000          1
H         4.77659416      14.23366344      10.72831205         0.00000000       0.00000000       0.00000000          1
H         5.08165393      10.78764724       8.82030085         0.00000000       0.00000000       0.00000000          1
6
pbc=[F, F, F] list_num_par=6 frozen=false iter=20000 energy=-1.26974174 Lattice="15.00000000 0.00000000 0.00000000 0.00000000 15.00000000 0.00000000 0.00000000 0.00000000 15.00000000" energy_frozen_part=0.00000000 Properties=species:S:1:pos:R:3:velocities:R:3:Z:I:1
H         3.07484039      12.06264098      10.28641328         0.00000000       0.00000000       0.00000000          1
H         6.78369386      12.95859588       9.26159920         0.00000000       0.00000000       0.00000000          1
H         4.26595680      13.36682990       8.12201744         0.00000000       0.00000000       0.00000000          1
H         5.59257970      11.65440203      11.42599052         0.00000000       0.00000000       0.00000000          1
H         4.77673041      14.23350731      10.72821382         0.00000000       0.00000000       0.00000000          1
H         5.08181464      10.78772697       8.81979362         0.00000000       0.00000000       0.00000000          1
6
pbc=[F, F, F] list_num_par=6 frozen=false iter=20000 energy=-1.26974174 Lattice="15.00000000 0.00000000 0.00000000 0.00000000 15.00000000 0.00000000 0.00000000 0.00000000 15.00000000" energy_frozen_part=0.00000000 Properties=species:S:1:pos:R:3:velocities:R:3:Z:I:1
H         2.62328459      12.05537819      10.07884881         0.00000000       0.00000000       0.00000000          1
H         6.40084651      13.18884337       9.84684768         0.00000000       0.00000000       0.00000000          1
H         4.12596305      13.56218301       8.26894073         0.00000000       0.00000000       0.00000000          1
H         4.89816810      11.68203644      11.65675757         0.00000000       0.00000000       0.00000000          1
H         4.08128493      14.26443044      10.97247627         0.00000000       0.00000000       0.00000000          1
H         4.94284520      10.97978773       8.95321266         0.00000000       0.00000000       0.00000000          1
6
pbc=[F, F, F] list_num_par=6 frozen=false iter=20000 energy=-1.26974174 Lattice="15.00000000 0.00000000 0.00000000 0.00000000 15.00000000 0.00000000 0.00000000 0.00000000 15.00000000" energy_frozen_part=0.00000000 Properties=species:S:1:pos:R:3:velocities:R:3:Z:I:1
H         3.07459206      12.06297424      10.28676813         0.00000000       0.00000000       0.00000000          1
H         6.78360591      12.95831712       9.26201732         0.00000000       0.00000000       0.00000000          1
H         4.26597040      13.36680012       8.12229409         0.00000000       0.00000000       0.00000000          1
H         5.59221971      11.65449246      11.42647997         0.00000000       0.00000000       0.00000000          1
H         4.77676409      14.23364951      10.72843111         0.00000000       0.00000000       0.00000000          1
H         5.08143539      10.78764662       8.82033679         0.00000000       0.00000000       0.00000000          1
6
pbc=[F, F, F] list_num_par=6 frozen=false iter=20000 energy=-1.26974174 Lattice="15.00000000 0.00000000 0.00000000 0.00000000 15.00000000 0.00000000 0.00000000 0.00000000 15.00000000" energy_frozen_part=0.00000000 Properties=species:S:1:pos:R:3:velocities:R:3:Z:I:1
H         3.07464868      12.06281206      10.28665652         0.00000000       0.00000000       0.00000000          1
H         6.78360398      12.95849140       9.26195877         0.00000000       0.00000000       0.00000000          1
H         4.26595681      13.36668946       8.12217744         0.00000000       0.00000000       0.00000000          1
H         5.59229936      11.65461517      11.42644166         0.00000000       0.00000000       0.00000000          1
H         4.77660796      14.23366140      10.72830109         0.00000000       0.00000000       0.00000000          1
H         5.08165363      10.78763699       8.82032044         0.00000000       0.00000000       0.00000000          1
6
pbc=[F, F, F] list_num_par=6 frozen=false iter=20000 energy=-1.26974174 Lattice="15.00000000 0.00000000 0.00000000 0.00000000 15.00000000 0.00000000 0.00000000 0.00000000 15.00000000" energy_frozen_part=0.00000000 Properties=species:S:1:pos:R:3:velocities:R:3:Z:I:1
H         3.06523443      12.08006194      10.28496831         0.00000000       0.00000000       0.00000000          1
H         6.78397347      12.95035151       9.27397577         0.00000000       0.00000000       0.00000000          1
H         4.27348285      13.37475788       8.12437337         0.00000000       0.00000000       0.00000000          1
H         5.57573159      11.65565710      11.43457440         0.00000000       0.00000000       0.00000000          1
H         4.77996926      14.23972661      10.73197712         0.00000000       0.00000000       0.00000000          1
H         5.06923830      10.79068654       8.82698094         0.00000000       0.00000000       0.00000000          1
6
pbc=[F, F, F] list_num_par=6 frozen=false iter=20000 energy=-1.26974174 Lattice="15.00000000 0.00000000 0.00000000 0.00000000 15.00000000 0.00000000 0.00000000 0.00000000 15.00000000" energy_frozen_part=0.00000000 Properties=species:S:1:pos:R:3:velocities:R:3:Z:I:1
H         3.07476623      12.06253285      10.28724807         0.00000000       0.00000000       0.00000000          1
H         6.78358179      12.95826529       9.26210403         0.00000000       0.00000000       0.00000000          1
H         4.26577192      13.36669979       8.12276605         0.00000000       0.00000000       0.00000000          1
H         5.59258343      11.65410207      11.42657484         0.00000000       0.00000000       0.00000000          1
H         4.77683572      14.23327765      10.72893785         0.00000000       0.00000000       0.00000000          1
H         5.08150110      10.78752218       8.82040681         0.00000000       0.00000000       0.00000000          1
6
pbc=[F, F, F] list_num_par=6 frozen=false iter=20000 energy=-1.26974174 Lattice="15.00000000 0.00000000 0.00000000 0.00000000 15.00000000 0.00000000 0.00000000 0.00000000 15.00000000" energy_frozen_part=0.00000000 Properties=species:S:1:pos:R:3:velocities:R:3:Z:I:1
H         3.07483174      12.06267383      10.28638975         0.00000000       0.00000000       0.00000000          1
H         6.78370189      12.95861033       9.26161089         0.00000000       0.00000000       0.00000000          1
H         4.26598170      13.36685248       8.12200084         0.00000000       0.00000000       0.00000000          1
H         5.59254799      11.65443156      11.42598873         0.00000000       0.00000000       0.00000000          1
H         4.77671980      14.23354129      10.72820003         0.00000000       0.00000000       0.00000000          1
H         5.08180372      10.78774699       8.81979017         0.00000000       0.00000000       0.00000000          1
6
pbc=[F, F, F] list_num_par=6 frozen=false iter=20000 energy=-1.26974174 Lattice="15.00000000 0.00000000 0.00000000 0.00000000 15.00000000 0.00000000 0.00000000 0.00000000 15.00000000" energy_frozen_part=0.00000000 Properties=species:S:1:pos:R:3:velocities:R:3:Z:I:1
H         3.06523934      12.08005407      10.28497266         0.00000000       0.00000000       0.00000000          1
H         6.78397946      12.95034837       9.27396959         0.00000000       0.00000000       0.00000000          1
H         4.27347960      13.37475488       8.12437285         0.00000000       0.00000000       0.00000000          1
H         5.57573461      11.65564005      11.43456793         0.00000000       0.00000000       0.00000000          1
H         4.77997610      14.23971483      10.73197204         0.00000000       0.00000000       0.00000000          1
H         5.06923589      10.79068413       8.82696786         0.00000000       0.00000000       0.00000000          1
6
pbc=[F, F, F] list_num_par=6 frozen=false iter=20000 energy=-1.26974174 Lattice="15.00000000 0.00000000 0.00000000 0.00000000 15.00000000 0.00000000 0.00000000 0.00000000 15.00000000" energy_frozen_part=0.00000000 Properties=species:S:1:pos:R:3:velocities:R:3:Z:I:1
H         2.62326920      12.05537124      10.07883499         0.00000000       0.00000000       0.00000000          1
H         6.40082994      13.18884182       9.84682906         0.00000000       0.00000000       0.00000000          1
H         4.12593752      13.56218250       8.26892205         0.00000000       0.00000000       0.00000000          1
H         4.89815954      11.68202529      11.65674121         0.00000000       0.00000000       0.00000000          1
H         4.08128163      14.26442440      10.97246984         0.00000000       0.00000000       0.00000000          1
H         4.94282208      10.97978917       8.95319962         0.00000000       0.00000000       0.00000000          1
6
pbc=[F, F, F] list_num_par=6 frozen=false iter=20000 energy=-1.26974174 Lattice="15.00000000 0.00000000 0.00000000 0.00000000 15.00000000 0.00000000 0.00000000 0.00000000 15.00000000" energy_frozen_part=0.00000000 Properties=species:S:1:pos:R:3:velocities:R:3:Z:I:1
H         2.62327060      12.05538492      10.07881880         0.00000000       0.00000000       0.00000000          1
H         6.40082820      13.18885848       9.84682252         0.00000000       0.00000000       0.00000000          1
H         4.12594556      13.56220322       8.26891632         0.00000000       0.00000000       0.00000000          1
H         4.89814643      11.68205042      11.65673193         0.00000000       0.00000000       0.00000000          1
H         4.08127198      14.26444577      10.97245976         0.00000000       0.00000000       0.00000000          1
H         4.94282517      10.97980760       8.95318587         0.00000000       0.00000000       0.00000000          1
6
pbc=[F, F, F] list_num_par=6 frozen=false iter=20000 energy=-1.26974174 Lattice="15.00000000 0.00000000 0.00000000 0.00000000 15.00000000 0.00000000 0.00000000 0.00000000 15.00000000" energy_frozen_part=0.00000000 Properties=species:S:1:pos:R:3:velocities:R:3:Z:I:1
H         3.07464003      12.06279229      10.28662896         0.00000000       0.00000000       0.00000000          1
H         6.78358997      12.95849057       9.26193652         0.00000000       0.00000000       0.00000000          1
H         4.26593946      13.36668457       8.12215352         0.00000000       0.00000000       0.00000000          1
H         5.59228876      11.65459751      11.42640197         0.00000000       0.00000000       0.00000000          1
H         4.77658276      14.23365546      10.72828271         0.00000000       0.00000000       0.00000000          1
H         5.08164958      10.78763257       8.82027883         0.00000000       0.00000000       0.00000000          1
6
pbc=[F, F, F] list_num_par=6 frozen=false iter=20000 energy=-1.26974174 Lattice="15.00000000 0.00000000 0.00000000 0.00000000 15.00000000 0.00000000 0.00000000 0.00000000 15.00000000" energy_frozen_part=0.00000000 Properties=species:S:1:pos:R:3:velocities:R:3:Z:I:1
H         3.07457870      12.06297346      10.28676531         0.00000000       0.00000000       0.00000000          1
H         6.78358785      12.95831970       9.26199449         0.00000000       0.00000000       0.00000000          1
H         4.26595230      13.36679351       8.12228774         0.00000000       0.00000000       0.00000000          1
H         5.59221699      11.65449493      11.42647984         0.00000000       0.00000000       0.00000000          1
H         4.77674851      14.23364543      10.72842833         0.00000000       0.00000000       0.00000000          1
H         5.08142038      10.78763954       8.82034019         0.00000000       0.00000000       0.00000000          1
6
pbc=[F, F, F] list_num_par=6 frozen=false iter=20000 energy=-1.26974174 Lattice="15.00000000 0.00000000 0.00000000 0.00000000 15.00000000 0.00000000 0.00000000 0.00000000 15.00000000" energy_frozen_part=0.00000000 Properties=species:S:1:pos:R:3:velocities:R:3:Z:I:1
H         3.07458004      12.06296794      10.28677261         0.00000000       0.00000000       0.00000000          1
H         6.78359330      12.95831962       9.26199817         0.00000000       0.00000000       0.00000000          1
H         4.26595375      13.36679613       8.12229859         0.00000000       0.00000000       0.00000000          1
H         5.59221539      11.65450044      11.42647362         0.00000000       0.00000000       0.00000000          1
H         4.77674956      14.23365510      10.72842524         0.00000000       0.00000000       0.00000000          1
H         5.08141858      10.78764390       8.82033915         0.00000000       0.00000000       0.00000000          1
6
pbc=[F, F, F] list_num_par=6 frozen=false iter=20000 energy=-1.26974174 Lattice="15.00000000 0.00000000 0.00000000 0.00000000 15.00000000 0.00000000 0.00000000 0.00000000 15.00000000" energy_frozen_part=0.00000000 Properties=species:S:1:pos:R:3:velocities:R:3:Z:I:1
H         3.07473252      12.06266470      10.28737219         0.00000000       0.00000000       0.00000000          1
H         6.78346906      12.95837544       9.26191604         0.00000000       0.00000000       0.00000000          1
H         4.26559011      13.36653078       8.12263508         0.00000000       0.00000000       0.00000000          1
H         5.59262146      11.65451536      11.42665861         0.00000000       0.00000000       0.00000000          1
H         4.77674675      14.23354706      10.72864106         0.00000000       0.00000000       0.00000000          1
H         5.08145760      10.78750027       8.82065145         0.00000000       0.00000000       0.00000000          1
6
pbc=[F, F, F] list_num_par=6 frozen=false iter=20000 energy=-1.26974174 Lattice="15.00000000 0.00000000 0.00000000 0.00000000 15.00000000 0.00000000 0.00000000 0.00000000 15.00000000" energy_frozen_part=0.00000000 Properties=species:S:1:pos:R:3:velocities:R:3:Z:I:1
H         3.07464224      12.06283116      10.28664351         0.00000000       0.00000000       0.00000000          1
H         6.78360826      12.95846432       9.26194408         0.00000000       0.00000000       0.00000000          1
H         4.26596475      13.36668758       8.12216070         0.00000000       0.00000000       0.00000000          1
H         5.59228389      11.65460429      11.42642747         0.00000000       0.00000000       0.00000000          1
H         4.77662394      14.23366823      10.72827628         0.00000000       0.00000000       0.00000000          1
H         5.08163600      10.78763212       8.82031075         0.00000000       0.00000000       0.00000000          1
6
pbc=[F, F, F] list_num_par=6 frozen=false iter=20000 energy=-1.26974174 Lattice="15.00000000 0.00000000 0.00000000 0.00000000 15.00000000 0.00000000 0.00000000 0.00000000 15.00000000" energy_frozen_part=0.00000000 Properties=species:S:1:pos:R:3:velocities:R:3:Z:I:1
H         2.62326747      12.05538374      10.07881849         0.00000000       0.00000000       0.00000000          1
H         6.40083026      13.18886234       9.84682606         0.00000000       0.00000000       0.00000000          1
H         4.12594537      13.56220598       8.26891594         0.00000000       0.00000000       0.00000000          1
H         4.89815811      11.68203838      11.65672264         0.00000000       0.00000000       0.00000000          1
H         4.08126957      14.26443508      10.97245670         0.00000000       0.00000000       0.00000000          1
H         4.94283482      10.97980816       8.95317772         0.00000000       0.00000000       0.00000000          1
6
pbc=[F, F, F] list_num_par=6 frozen=false iter=20000 energy=-1.26974174 Lattice="15.00000000 0.00000000 0.00000000 0.00000000 15.00000000 0.00000000 0.00000000 0.00000000 15.00000000" energy_frozen_part=0.00000000 Properties=species:S:1:pos:R:3:velocities:R:3:Z:I:1
H         3.07468657      12.06254543      10.28724479         0.00000000       0.00000000       0.00000000          1
H         6.78344771      12.95848581       9.26206743         0.00000000       0.00000000       0.00000000          1
H         4.26559518      13.36677683       8.12276154         0.00000000       0.00000000       0.00000000          1
H         5.59253613      11.65424400      11.42655203         0.00000000       0.00000000       0.00000000          1
H         4.77664458      14.23338015      10.72893001         0.00000000       0.00000000       0.00000000          1
H         5.08148334      10.78764109       8.82038597         0.00000000       0.00000000       0.00000000          1
6
pbc=[F, F, F] list_num_par=6 frozen=false iter=20000 energy=-1.26974174 Lattice="15.00000000 0.00000000 0.00000000 0.00000000 15.00000000 0.00000000 0.00000000 0.00000000 15.00000000" energy_frozen_part=0.00000000 Properties=species:S:1:pos:R:3:velocities:R:3:Z:I:1
H         3.07458106      12.06298369      10.28677017         0.00000000       0.00000000       0.00000000          1
H         6.78360241      12.95832387       9.26201255         0.00000000       0.00000000       0.00000000          1
H         4.26596961      13.36679990       8.12230184         0.00000000       0.00000000       0.00000000          1
H         5.59222085      11.65449808      11.42648132         0.00000000       0.00000000       0.00000000          1
H         4.77676168      14.23365813      10.72843544         0.00000000       0.00000000       0.00000000          1
H         5.08142520      10.78764911       8.82034968         0.00000000       0.00000000       0.00000000          1
6
pbc=[F, F, F] list_num_par=6 frozen=false iter=20000 energy=-1.26974174 Lattice="15.00000000 0.00000000 0.00000000 0.00000000 15.00000000 0.00000000 0.00000000 0.00000000 15.00000000" energy_frozen_part=0.00000000 Properties=species:S:1:pos:R:3:velocities:R:3:Z:I:1
H         3.06525914      12.07996413      10.28491509         0.00000000       0.00000000       0.00000000          1
H         6.78396871      12.95039591       9.27391952         0.00000000       0.00000000       0.00000000          1
H         4.27345842      13.37473071       8.12433119         0.00000000       0.00000000       0.00000000          1
H         5.57576983      11.65562928      11.43450635         0.00000000       0.00000000       0.00000000          1
H         4.77993081      14.23968269      10.73194079         0.00000000       0.00000000       0.00000000          1
H         5.06930914      10.79067917       8.82688774         0.00000000       0.00000000       0.00000000          1
6
pbc=[F, F, F] list_num_par=6 frozen=false iter=20000 energy=-1.26974174 Lattice="15.00000000 0.00000000 0.00000000 0.00000000 15.00000000 0.00000000 0.00000000 0.00000000 15.00000000" energy_frozen_part=0.00000000 Properties=species:S:1:pos:R:3:velocities:R:3:Z:I:1
H         3.07454543      12.06291059      10.28699808         0.00000000       0.00000000       0.00000000          1
H         6.78344786      12.95834225       9.26190494         0.00000000       0.00000000       0.00000000          1
H         4.26571299      13.36669986       8.12238659         0.00000000       0.00000000       0.00000000          1
H         5.59229258      11.65455404      11.42651458         0.00000000       0.00000000       0.00000000          1
H         4.77668095      14.23365635      10.72845384         0.00000000       0.00000000       0.00000000          1
H         5.08131529      10.78759723       8.82045126         0.00000000       0.00000000       0.00000000          1
6
pbc=[F, F, F] list_num_par=6 frozen=false iter=20000 energy=-1.26974174 Lattice="15.00000000 0.00000000 0.00000000 0.00000000 15.00000000 0.00000000 0.00000000 0.00000000 15.00000000" energy_frozen_part=0.00000000 Properties=species:S:1:pos:R:3:velocities:R:3:Z:I:1
H         2.62333074      12.05537735      10.07880676         0.00000000       0.00000000       0.00000000          1
H         6.40089957      13.18886803       9.84680939         0.00000000       0.00000000       0.00000000          1
H         4.12601765      13.56215551       8.26887815         0.00000000       0.00000000       0.00000000          1
H         4.89821119      11.68209248      11.65673607         0.00000000       0.00000000       0.00000000          1
H         4.08131929      14.26446415      10.97240370         0.00000000       0.00000000       0.00000000          1
H         4.94290766      10.97978823       8.95321305         0.00000000       0.00000000       0.00000000          1
6
pbc=[F, F, F] list_num_par=6 frozen=false iter=20000 energy=-1.26974174 Lattice="15.00000000 0.00000000 0.00000000 0.00000000 15.00000000 0.00000000 0.00000000 0.00000000 15.00000000" energy_frozen_part=0.00000000 Properties=species:S:1:pos:R:3:velocities:R:3:Z:I:1
H         3.07454071      12.06291010      10.28698023         0.00000000       0.00000000       0.00000000          1
H         6.78344789      12.95835196       9.26190858         0.00000000       0.00000000       0.00000000          1
H         4.26570805      13.36671268       8.12237997         0.00000000       0.00000000       0.00000000          1
H         5.59227775      11.65455789      11.42652103         0.00000000       0.00000000       0.00000000          1
H         4.77667574      14.23365588      10.72845297         0.00000000       0.00000000       0.00000000          1
H         5.08131497      10.78760947       8.82044841         0.00000000       0.00000000       0.00000000          1
6
pbc=[F, F, F] list_num_par=6 frozen=false iter=20000 energy=-1.26974174 Lattice="15.00000000 0.00000000 0.00000000 0.00000000 15.00000000 0.00000000 0.00000000 0.00000000 15.00000000" energy_frozen_part=0.00000000 Properties=species:S:1:pos:R:3:velocities:R:3:Z:I:1
H         3.07479962      12.06250895      10.28725703         0.00000000       0.00000000       0.00000000          1
H         6.78359791      12.95830382       9.26209482         0.00000000       0.00000000       0.00000000          1
H         4.26577373      13.36667346       8.12276196         0.00000000       0.00000000       0.00000000          1
H         5.59262060      11.65414050      11.42659263         0.00000000       0.00000000       0.00000000          1
H         4.77683257      14.23329135      10.72892141         0.00000000       0.00000000       0.00000000          1
H         5.08155817      10.78752402       8.82043250         0.00000000       0.00000000       0.00000000          1
6
pbc=[F, F, F] list_num_par=6 frozen=false iter=20000 energy=-1.26974174 Lattice="15.00000000 0.00000000 0.00000000 0.00000000 15.00000000 0.00000000 0.00000000 0.00000000 15.00000000" energy_frozen_part=0.00000000 Properties=species:S:1:pos:R:3:velocities:R:3:Z:I:1
H         3.07481658      12.06268666      10.28650879         0.00000000       0.00000000       0.00000000          1
H         6.78358743      12.95870281       9.26143922         0.00000000       0.00000000       0.00000000          1
H         4.26576579      13.36689096       8.12202973         0.00000000       0.00000000       0.00000000          1
H         5.59263980      11.65449390      11.42591028         0.00000000       0.00000000       0.00000000          1
H         4.77670139      14.23358610      10.72818910         0.00000000       0.00000000       0.00000000          1
H         5.08170420      10.78780647       8.81975648         0.00000000       0.00000000       0.00000000          1
6
pbc=[F, F, F] list_num_par=6 frozen=false iter=20000 energy=-1.26974174 Lattice="15.00000000 0.00000000 0.00000000 0.00000000 15.00000000 0.00000000 0.00000000 0.00000000 15.00000000" energy_frozen_part=0.00000000 Properties=species:S:1:pos:R:3:velocities:R:3:Z:I:1
H         3.07476448      12.06252193      10.28726069         0.00000000       0.00000000       0.00000000          1
H         6.78355836      12.95829495       9.26206031         0.00000000       0.00000000       0.00000000          1
H         4.26572616      13.36664591       8.12274395         0.00000000       0.00000000       0.00000000          1
H         5.59259566      11.65416279      11.42658313         0.00000000       0.00000000       0.00000000          1
H         4.77680423      14.23330720      10.72889230         0.00000000       0.00000000       0.00000000          1
H         5.08151542      10.78750286       8.82044255         0.00000000       0.00000000       0.00000000          1
6
pbc=[F, F, F] list_num_par=6 frozen=false iter=20000 energy=-1.26974174 Lattice="15.00000000 0.00000000 0.00000000 0.00000000 15.00000000 0.00000000 0.00000000 0.00000000 15.00000000" energy_frozen_part=0.00000000 Properties=species:S:1:pos:R:3:velocities:R:3:Z:I:1
H         2.62329184      12.05539441      10.07884847         0.00000000       0.00000000       0.00000000          1
H         6.40086106      13.18884651       9.84678245         0.00000000       0.00000000       0.00000000          1