6
pbc=[F, F, F] list_num_par=6 frozen=false iter=20000 energy=-1.26974174 Lattice="15.00000000 0.00000000 0.00000000 0.00000000 15.00000000 0.00000000 0.00000000 0.00000000 15.00000000" energy_frozen_part=0.00000000 Properties=species:S:1:pos:R:3:velocities:R:3:Z:I:1
H         1.72228916      12.55144169       3.45752105         0.00000000       0.00000000       0.00000000          1
H         0.83320888      11.60196659       5.92982640         0.00000000       0.00000000       0.00000000          1
H         0.90854824      14.35019702       5.43402180         0.00000000       0.00000000       0.00000000          1
H         3.53499858      11.40478342       5.24736488         0.00000000       0.00000000       0.00000000          1
H         2.72125083      13.20353905       7.22387113         0.00000000       0.00000000       0.00000000          1
H         3.61033417      14.15301626       4.75156545         0.00000000       0.00000000       0.00000000          1
6
pbc=[F, F, F] list_num_par=6 frozen=false iter=20000 energy=-1.26974174 Lattice="15.00000000 0.00000000 0.00000000 0.00000000 15.00000000 0.00000000 0.00000000 0.00000000 15.00000000" energy_frozen_part=0.00000000 Properties=species:S:1:pos:R:3:velocities:R:3:Z:I:1
H         1.72234286      12.55145685       3.45755340         0.00000000       0.00000000       0.00000000          1
H         0.83320953      11.60200134       5.92985637         0.00000000       0.00000000       0.00000000          1
H         0.90860126      14.35022796       5.43404391         0.00000000       0.00000000       0.00000000          1
H         3.53500201      11.40476431       5.24743416         0.00000000       0.00000000       0.00000000          1
H         2.72126613      13.20354312       7.22392367         0.00000000       0.00000000       0.00000000          1
H         3.61039334      14.15299811       4.75162350         0.00000000       0.00000000       0.00000000          1
6
pbc=[F, F, F] list_num_par=6 frozen=false iter=20000 energy=-1.26974174 Lattice="15.00000000 0.00000000 0.00000000 0.00000000 15.00000000 0.00000000 0.00000000 0.00000000 15.00000000" energy_frozen_part=0.00000000 Properties=species:S:1:pos:R:3:velocities:R:3:Z:I:1
H         1.76939833      12.92561421       3.32561836         0.00000000       0.00000000       0.00000000          1
H         1.77674606      11.44194578       5.69267435         0.00000000       0.00000000       0.00000000          1
H         1.04490570      14.13765601       5.73608305         0.00000000       0.00000000       0.00000000          1
H         4.19099982      12.11723169       4.45992894         0.00000000       0.00000000       0.00000000          1
H         3.46649979      13.32926551       6.87039544         0.00000000       0.00000000       0.00000000          1
H         3.45915724      14.81293547       4.50333468         0.00000000       0.00000000       0.00000000          1
6
pbc=[F, F, F] list_num_par=6 frozen=false iter=20000 energy=-1.26974174 Lattice="15.00000000 0.00000000 0.00000000 0.00000000 15.00000000 0.00000000 0.00000000 0.00000000 15.00000000" energy_frozen_part=0.00000000 Properties=species:S:1:pos:R:3:velocities:R:3:Z:I:1
H         1.76938683      12.92563016       3.32565359         0.00000000       0.00000000       0.00000000          1
H         1.77670944      11.44200217       5.69273405         0.00000000       0.00000000       0.00000000          1
H         1.04484418      14.13770002       5.73609066         0.00000000       0.00000000       0.00000000          1
H         4.19097772      12.11729146       4.46001958         0.00000000       0.00000000       0.00000000          1
H         3.46643187      13.32936218       6.87045185         0.00000000       0.00000000       0.00000000          1
H         3.45910697      14.81299047       4.50337388         0.00000000       0.00000000       0.00000000          1
6
pbc=[F, F, F] list_num_par=6 frozen=false iter=20000 energy=-1.26974174 Lattice="15.00000000 0.00000000 0.00000000 0.00000000 15.00000000 0.00000000 0.00000000 0.00000000 15.00000000" energy_frozen_part=0.00000000 Properties=species:S:1:pos:R:3:velocities:R:3:Z:I:1
H         1.76943436      12.92573123       3.32552815         0.00000000       0.00000000       0.00000000          1
H         1.77669471      11.44208212       5.69259214         0.00000000       0.00000000       0.00000000          1
H         1.04492644      14.13781106       5.73597013         0.00000000       0.00000000       0.00000000          1
H         4.19098856      12.11728841       4.45989237         0.00000000       0.00000000       0.00000000          1
H         3.46648268      13.32936640       6.87033533         0.00000000       0.00000000       0.00000000          1
H         3.45922439      14.81301231       4.50326407         0.00000000       0.00000000       0.00000000          1
6
pbc=[F, F, F] list_num_par=6 frozen=false iter=20000 energy=-1.26974174 Lattice="15.00000000 0.00000000 0.00000000 0.00000000 15.00000000 0.00000000 0.00000000 0.00000000 15.00000000" energy_frozen_part=0.00000000 Properties=species:S:1:pos:R:3:velocities:R:3:Z:I:1
H         1.72231610      12.55143099       3.45752544         0.00000000       0.00000000       0.00000000          1
H         0.83318444      11.60198906       5.92982818         0.00000000       0.00000000       0.00000000          1
H         0.90857226      14.35021369       5.43400359         0.00000000       0.00000000       0.00000000          1
H         3.53497964      11.40475275       5.24740616         0.00000000       0.00000000       0.00000000          1
H         2.72124232      13.20353890       7.22388354         0.00000000       0.00000000       0.00000000          1
H         3.61036748      14.15298259       4.75157668         0.00000000       0.00000000       0.00000000          1
6
pbc=[F, F, F] list_num_par=6 frozen=false iter=20000 energy=-1.26974174 Lattice="15.00000000 0.00000000 0.00000000 0.00000000 15.00000000 0.00000000 0.00000000 0.00000000 15.00000000" energy_frozen_part=0.00000000 Properties=species:S:1:pos:R:3:velocities:R:3:Z:I:1
H         1.76935269      12.92562073       3.32564475         0.00000000       0.00000000       0.00000000          1
H         1.77671177      11.44208667       5.69278360         0.00000000       0.00000000       0.00000000          1
H         1.04492223      14.13780571       5.73605656         0.00000000       0.00000000       0.00000000          1
H         4.19095846      12.11726414       4.45996276         0.00000000       0.00000000       0.00000000          1
H         3.46652029      13.32944189       6.87037424         0.00000000       0.00000000       0.00000000          1
H         3.45916907      14.81298142       4.50323407         0.00000000       0.00000000       0.00000000          1
6
pbc=[F, F, F] list_num_par=6 frozen=false iter=20000 energy=-1.26974174 Lattice="15.00000000 0.00000000 0.00000000 0.00000000 15.00000000 0.00000000 0.00000000 0.00000000 15.00000000" energy_frozen_part=0.00000000 Properties=species:S:1:pos:R:3:velocities:R:3:Z:I:1
H         1.76933136      12.92562526       3.32565494         0.00000000       0.00000000       0.00000000          1
H         1.77670441      11.44209788       5.69280168         0.00000000       0.00000000       0.00000000          1
H         1.04492257      14.13782346       5.73606785         0.00000000       0.00000000       0.00000000          1
H         4.19094411      12.11725864       4.45995470         0.00000000       0.00000000       0.00000000          1
H         3.46653267      13.32945067       6.87037278         0.00000000       0.00000000       0.00000000          1
H         3.45916111      14.81297964       4.50322730         0.00000000       0.00000000       0.00000000          1
6
pbc=[F, F, F] list_num_par=6 frozen=false iter=20000 energy=-1.26974174 Lattice="15.00000000 0.00000000 0.00000000 0.00000000 15.00000000 0.00000000 0.00000000 0.00000000 15.00000000" energy_frozen_part=0.00000000 Properties=species:S:1:pos:R:3:velocities:R:3:Z:I:1
H         1.76932798      12.92562861       3.32568071         0.00000000       0.00000000       0.00000000          1
H         1.77671265      11.44209284       5.69282343         0.00000000       0.00000000       0.00000000          1
H         1.04496596      14.13782542       5.73610757         0.00000000       0.00000000       0.00000000          1
H         4.19094020      12.11723018       4.45994829         0.00000000       0.00000000       0.00000000          1
H         3.46657395      13.32943039       6.87037567         0.00000000       0.00000000       0.00000000          1
H         3.45919574      14.81296205       4.50322856         0.00000000       0.00000000       0.00000000          1
6
pbc=[F, F, F] list_num_par=6 frozen=false iter=20000 energy=-1.26974174 Lattice="15.00000000 0.00000000 0.00000000 0.00000000 15.00000000 0.00000000 0.00000000 0.00000000 15.00000000" energy_frozen_part=0.00000000 Properties=species:S:1:pos:R:3:velocities:R:3:Z:I:1
H         1.75576387      12.93388976       3.33149204         0.00000000       0.00000000       0.00000000          1
H         1.77976248      11.43087982       5.68620093         0.00000000       0.00000000       0.00000000          1
H         1.03878833      14.12354665       5.75531464         0.00000000       0.00000000       0.00000000          1
H         4.18563973      12.12472772       4.44739904         0.00000000       0.00000000       0.00000000          1
H         3.46865987      13.31438962       6.87122936         0.00000000       0.00000000       0.00000000          1
H         3.44466212      14.81739697       4.51651513         0.00000000       0.00000000       0.00000000          1
6
pbc=[F, F, F] list_num_par=6 frozen=false iter=20000 energy=-1.26974174 Lattice="15.00000000 0.00000000 0.00000000 0.00000000 15.00000000 0.00000000 0.00000000 0.00000000 15.00000000" energy_frozen_part=0.00000000 Properties=species:S:1:pos:R:3:velocities:R:3:Z:I:1
H         1.75577922      12.93403542       3.33130197         0.00000000       0.00000000       0.00000000          1
H         1.77948122      11.43107620       5.68604535         0.00000000       0.00000000       0.00000000          1
H         1.03870810      14.12380296       5.75504988         0.00000000       0.00000000       0.00000000          1
H         4.18550202      12.12471683       4.44741097         0.00000000       0.00000000       0.00000000          1
H         3.46843817      13.31448299       6.87116293         0.00000000       0.00000000       0.00000000          1
H         3.44472724      14.81744801       4.51641632         0.00000000       0.00000000       0.00000000          1
6
pbc=[F, F, F] list_num_par=6 frozen=false iter=20000 energy=-1.26974174 Lattice="15.00000000 0.00000000 0.00000000 0.00000000 15.00000000 0.00000000 0.00000000 0.00000000 15.00000000" energy_frozen_part=0.00000000 Properties=species:S:1:pos:R:3:velocities:R:3:Z:I:1
H         1.72233706      12.55145319       3.45755343         0.00000000       0.00000000       0.00000000          1
H         0.83320391      11.60200471       5.92985521         0.00000000       0.00000000       0.00000000          1
H         0.90860084      14.35023641       5.43404504         0.00000000       0.00000000       0.00000000          1
H         3.53499839      11.40476416       5.24743241         0.00000000       0.00000000       0.00000000          1
H         2.72126074      13.20354714       7.22391658         0.00000000       0.00000000       0.00000000          1
H         3.61038734      14.15299953       4.75161179         0.00000000       0.00000000       0.00000000          1
6
pbc=[F, F, F] list_num_par=6 frozen=false iter=20000 energy=-1.26974174 Lattice="15.00000000 0.00000000 0.00000000 0.00000000 15.00000000 0.00000000 0.00000000 0.00000000 15.00000000" energy_frozen_part=0.00000000 Properties=species:S:1:pos:R:3:velocities:R:3:Z:I:1
H         1.76935105      12.92555612       3.32555379         0.00000000       0.00000000       0.00000000          1
H         1.77671989      11.44195062       5.69265437         0.00000000       0.00000000       0.00000000          1
H         1.04485446      14.13764929       5.73599481         0.00000000       0.00000000       0.00000000          1
H         4.19096016      12.11723114       4.45988791         0.00000000       0.00000000       0.00000000          1
H         3.46645872      13.32932607       6.87032703         0.00000000       0.00000000       0.00000000          1
H         3.45909508      14.81292634       4.50322441         0.00000000       0.00000000       0.00000000          1
6
pbc=[F, F, F] list_num_par=6 frozen=false iter=20000 energy=-1.26974174 Lattice="15.00000000 0.00000000 0.00000000 0.00000000 15.00000000 0.00000000 0.00000000 0.00000000 15.00000000" energy_frozen_part=0.00000000 Properties=species:S:1:pos:R:3:velocities:R:3:Z:I:1
H         1.75574567      12.93391423       3.33156580         0.00000000       0.00000000       0.00000000          1
H         1.77978110      11.43094264       5.68630062         0.00000000       0.00000000       0.00000000          1
H         1.03877605      14.12359919       5.75538555         0.00000000       0.00000000       0.00000000          1
H         4.18563867      12.12479699       4.44747552         0.00000000       0.00000000       0.00000000          1
H         3.46866814      13.31448777       6.87128642         0.00000000       0.00000000       0.00000000          1
H         3.44463160      14.81745808       4.51654731         0.00000000       0.00000000       0.00000000          1
6
pbc=[F, F, F] list_num_par=6 frozen=false iter=20000 energy=-1.26974174 Lattice="15.00000000 0.00000000 0.00000000 0.00000000 15.00000000 0.00000000 0.00000000 0.00000000 15.00000000" energy_frozen_part=0.00000000 Properties=species:S:1:pos:R:3:velocities:R:3:Z:I:1
H         1.76935756      12.92554430       3.32556061         0.00000000       0.00000000       0.00000000          1
H         1.77675104      11.44194445       5.69266052         0.00000000       0.00000000       0.00000000          1
H         1.04483450      14.13763023       5.73600078         0.00000000       0.00000000       0.00000000          1
H         4.19098259      12.11726071       4.45989278         0.00000000       0.00000000       0.00000000          1
H         3.46645487      13.32934266       6.87033010         0.00000000       0.00000000       0.00000000          1
H         3.45907118      14.81294204       4.50322624         0.00000000       0.00000000       0.00000000          1
6
pbc=[F, F, F] list_num_par=6 frozen=false iter=20000 energy=-1.26974174 Lattice="15.00000000 0.00000000 0.00000000 0.00000000 15.00000000 0.00000000 0.00000000 0.00000000 15.00000000" energy_frozen_part=0.00000000 Properties=species:S:1:pos:R:3:velocities:R:3:Z:I:1
H         1.76938127      12.92562628       3.32566334         0.00000000       0.00000000       0.00000000          1
H         1.77669455      11.44204331       5.69276836         0.00000000       0.00000000       0.00000000          1
H         1.04482260      14.13774005       5.73607578         0.00000000       0.00000000       0.00000000          1
H         4.19096425      12.11731269       4.46005421         0.00000000       0.00000000       0.00000000          1
H         3.46640328      13.32941990       6.87046882         0.00000000       0.00000000       0.00000000          1
H         3.45909821      14.81300185       4.50335873         0.00000000       0.00000000       0.00000000          1
6
pbc=[F, F, F] list_num_par=6 frozen=false iter=20000 energy=-1.26974174 Lattice="15.00000000 0.00000000 0.00000000 0.00000000 15.00000000 0.00000000 0.00000000 0.00000000 15.00000000" energy_frozen_part=0.00000000 Properties=species:S:1:pos:R:3:velocities:R:3:Z:I:1
H         1.75576245      12.93389256       3.33147391         0.00000000       0.00000000       0.00000000          1
H         1.77973925      11.43089786       5.68619611         0.00000000       0.00000000       0.00000000          1
H         1.03877379      14.12356658       5.75529389         0.00000000       0.00000000       0.00000000          1
H         4.18562630      12.12473289       4.44741864         0.00000000       0.00000000       0.00000000          1
H         3.46863408      13.31440509       6.87123429         0.00000000       0.00000000       0.00000000          1
H         3.44466274      14.81740450       4.51650902         0.00000000       0.00000000       0.00000000          1
6
pbc=[F, F, F] list_num_par=6 frozen=false iter=20000 energy=-1.26974174 Lattice="15.00000000 0.00000000 0.00000000 0.00000000 15.00000000 0.00000000 0.00000000 0.00000000 15.00000000" energy_frozen_part=0.00000000 Properties=species:S:1:pos:R:3:velocities:R:3:Z:I:1
H         1.76935548      12.92566242       3.32562472         0.00000000       0.00000000       0.00000000          1
H         1.77672691      11.44195597       5.69266069         0.00000000       0.00000000       0.00000000          1
H         1.04491227      14.13766766       5.73612808         0.00000000       0.00000000       0.00000000          1
H         4.19096724      12.11723288       4.45988973         0.00000000       0.00000000       0.00000000          1
H         3.46652233      13.32924021       6.87038814         0.00000000       0.00000000       0.00000000          1
H         3.45915285      14.81294087       4.50335735         0.00000000       0.00000000       0.00000000          1
6
pbc=[F, F, F] list_num_par=6 frozen=false iter=20000 energy=-1.26974174 Lattice="15.00000000 0.00000000 0.00000000 0.00000000 15.00000000 0.00000000 0.00000000 0.00000000 15.00000000" energy_frozen_part=0.00000000 Properties=species:S:1:pos:R:3:velocities:R:3:Z:I:1
H         1.76939437      12.92562704       3.32562126         0.00000000       0.00000000       0.00000000          1
H         1.77674480      11.44195417       5.69267468         0.00000000       0.00000000       0.00000000          1
H         1.04490284      14.13765753       5.73609599         0.00000000       0.00000000       0.00000000          1
H         4.19099216      12.11723342       4.45992204         0.00000000       0.00000000       0.00000000          1
H         3.46650231      13.32926043       6.87039798         0.00000000       0.00000000       0.00000000          1
H         3.45915609      14.81293934       4.50335039         0.00000000       0.00000000       0.00000000          1
6
pbc=[F, F, F] list_num_par=6 frozen=false iter=20000 energy=-1.26974174 Lattice="15.00000000 0.00000000 0.00000000 0.00000000 15.00000000 0.00000000 0.00000000 0.00000000 15.00000000" energy_frozen_part=0.00000000 Properties=species:S:1:pos:R:3:velocities:R:3:Z:I:1
H         1.76934833      12.92561137       3.32565300         0.00000000       0.00000000       0.00000000          1
H         1.77670523      11.44208618       5.69280053         0.00000000       0.00000000       0.00000000          1
H         1.04492133      14.13780204       5.73606628         0.00000000       0.00000000       0.00000000          1
H         4.19094883      12.11724891       4.45996631         0.00000000       0.00000000       0.00000000          1
H         3.46652339      13.32943647       6.87037477         0.00000000       0.00000000       0.00000000          1
H         3.45916206      14.81297085       4.50323134         0.00000000       0.00000000       0.00000000          1
6
pbc=[F, F, F] list_num_par=6 frozen=false iter=20000 energy=-1.26974174 Lattice="15.00000000 0.00000000 0.00000000 0.00000000 15.00000000 0.00000000 0.00000000 0.00000000 15.00000000" energy_frozen_part=0.00000000 Properties=species:S:1:pos:R:3:velocities:R:3:Z:I:1
H         1.76937283      12.92565089       3.32569030         0.00000000       0.00000000       0.00000000          1
H         1.77668839      11.44209704       5.69281675         0.00000000       0.00000000       0.00000000          1
H         1.04497586      14.13783479       5.73611208         0.00000000       0.00000000       0.00000000          1
H         4.19095552      12.11720260       4.46000371         0.00000000       0.00000000       0.00000000          1
H         3.46655108      13.32938862       6.87042473         0.00000000       0.00000000       0.00000000          1
H         3.45924140      14.81294187       4.50329008         0.00000000       0.00000000       0.00000000          1
6
pbc=[F, F, F] list_num_par=6 frozen=false iter=20000 energy=-1.26974174 Lattice="15.00000000 0.00000000 0.00000000 0.00000000 15.00000000 0.00000000 0.00000000 0.00000000 15.00000000" energy_frozen_part=0.00000000 Properties=species:S:1:pos:R:3:velocities:R:3:Z:I:1
H         1.76933552      12.92562385       3.32567441         0.00000000       0.00000000       0.00000000          1
H         1.77671298      11.44209600       5.69282618         0.00000000       0.00000000       0.00000000          1
H         1.04495806      14.13782215       5.73609461         0.00000000       0.00000000       0.00000000          1
H         4.19094157      12.11722828       4.45995325         0.00000000       0.00000000       0.00000000          1
H         3.46657113      13.32943634       6.87037297         0.00000000       0.00000000       0.00000000          1
H         3.45919533      14.81295630       4.50323008         0.00000000       0.00000000       0.00000000          1
6
pbc=[F, F, F] list_num_par=6 frozen=false iter=20000 energy=-1.26974174 Lattice="15.00000000 0.00000000 0.00000000 0.00000000 15.00000000 0.00000000 0.00000000 0.00000000 15.00000000" energy_frozen_part=0.00000000 Properties=species:S:1:pos:R:3:velocities:R:3:Z:I:1
H         1.76934934      12.92553913       3.32557283         0.00000000       0.00000000       0.00000000          1
H         1.77673438      11.44194917       5.69267532         0.00000000       0.00000000       0.00000000          1
H         1.04482437      14.13763549       5.73600013         0.00000000       0.00000000       0.00000000          1
H         4.19096844      12.11725067       4.45990646         0.00000000       0.00000000       0.00000000          1
H         3.46644340      13.32934957       6.87033533         0.00000000       0.00000000       0.00000000          1
H         3.45906822      14.81293648       4.50322715         0.00000000       0.00000000       0.00000000          1
6
pbc=[F, F, F] list_num_par=6 frozen=false iter=20000 energy=-1.26974174 Lattice="15.00000000 0.00000000 0.00000000 0.00000000 15.00000000 0.00000000 0.00000000 0.00000000 15.00000000" energy_frozen_part=0.00000000 Properties=species:S:1:pos:R:3:velocities:R:3:Z:I:1
H         1.76941039      12.92548842       3.32564386         0.00000000       0.00000000       0.00000000          1
H         1.77678346      11.44195620       5.69278413         0.00000000       0.00000000       0.00000000          1
H         1.04487852      14.13764437       5.73603930         0.00000000       0.00000000       0.00000000          1
H         4.19102491      12.11721854       4.46000709         0.00000000       0.00000000       0.00000000          1
H         3.46649786      13.32937990       6.87040025         0.00000000       0.00000000       0.00000000          1
H         3.45912515      14.81290628       4.50326199         0.00000000       0.00000000       0.00000000          1
6
pbc=[F, F, F] list_num_par=6 frozen=false iter=20000 energy=-1.26974174 Lattice="15.00000000 0.00000000 0.00000000 0.00000000 15.00000000 0.00000000 0.00000000 0.00000000 15.00000000" energy_frozen_part=0.00000000 Properties=species:S:1:pos:R:3:velocities:R:3:Z:I:1
H         1.76933790      12.92556706       3.32556386         0.00000000       0.00000000       0.00000000          1
H         1.77670676      11.44195820       5.69266388         0.00000000       0.00000000       0.00000000          1
H         1.04483647      14.13765274       5.73600619         0.00000000       0.00000000       0.00000000          1
H         4.19094764      12.11723631       4.45988817         0.00000000       0.00000000       0.00000000          1
H         3.46645232      13.32933206       6.87032687         0.00000000       0.00000000       0.00000000          1
H         3.45907245      14.81293453       4.50322979         0.00000000       0.00000000       0.00000000          1
6
pbc=[F, F, F] list_num_par=6 frozen=false iter=20000 energy=-1.26974174 Lattice="15.00000000 0.00000000 0.00000000 0.00000000 15.00000000 0.00000000 0.00000000 0.00000000 15.00000000" energy_frozen_part=0.00000000 Properties=species:S:1:pos:R:3:velocities:R:3:Z:I:1
H         1.76938069      12.92562749       3.32565096         0.00000000       0.00000000       0.00000000          1
H         1.77670533      11.44200435       5.69273595         0.00000000       0.00000000       0.00000000          1
H         1.04483360      14.13769692       5.73608997         0.00000000       0.00000000       0.00000000          1
H         4.19096866      12.11729611       4.46001866         0.00000000       0.00000000       0.00000000          1
H         3.46642110      13.32936140       6.87045971         0.00000000       0.00000000       0.00000000          1
H         3.45909864      14.81298571       4.50338009         0.00000000       0.00000000       0.00000000          1
6
pbc=[F, F, F] list_num_par=6 frozen=false iter=20000 energy=-1.26974174 Lattice="15.00000000 0.00000000 0.00000000 0.00000000 15.00000000 0.00000000 0.00000000 0.00000000 15.00000000" energy_frozen_part=0.00000000 Properties=species:S:1:pos:R:3:velocities:R:3:Z:I:1
H         1.76935064      12.92563137       3.32566467         0.00000000       0.00000000       0.00000000          1
H         1.77670062      11.44209814       5.69280109         0.00000000       0.00000000       0.00000000          1
H         1.04490996      14.13781916       5.73607597         0.00000000       0.00000000       0.00000000          1
H         4.19095222      12.11727485       4.45998821         0.00000000       0.00000000       0.00000000          1
H         3.46650984      13.32945946       6.87039506         0.00000000       0.00000000       0.00000000          1
H         3.45915256      14.81299223       4.50325118         0.00000000       0.00000000       0.00000000          1
6
pbc=[F, F, F] list_num_par=6 frozen=false iter=20000 energy=-1.26974174 Lattice="15.00000000 0.00000000 0.00000000 0.00000000 15.00000000 0.00000000 0.00000000 0.00000000 15.00000000" energy_frozen_part=0.00000000 Properties=species:S:1:pos:R:3:velocities:R:3:Z:I:1
H         1.76941204      12.92559948       3.32560933         0.00000000       0.00000000       0.00000000          1
H         1.77675268      11.44193053       5.69266191         0.00000000       0.00000000       0.00000000          1
H         1.04489320      14.13763033       5.73607567         0.00000000       0.00000000       0.00000000          1
H         4.19100731      12.11723228       4.45992617         0.00000000       0.00000000       0.00000000          1
H         3.46649260      13.32925789       6.87039768         0.00000000       0.00000000       0.00000000          1
H         3.45914675      14.81292588       4.50334279         0.00000000       0.00000000       0.00000000          1
6
pbc=[F, F, F] list_num_par=6 frozen=false iter=20000 energy=-1.26974174 Lattice="15.00000000 0.00000000 0.00000000 0.00000000 15.00000000 0.00000000 0.00000000 0.00000000 15.00000000" energy_frozen_part=0.00000000 Properties=species:S:1:pos:R:3:velocities:R:3:Z:I:1
H         1.76944913      12.92571064       3.32551274         0.00000000       0.00000000       0.00000000          1
H         1.77669552      11.44208742       5.69260144         0.00000000       0.00000000       0.00000000          1
H         1.04494429      14.13781405       5.73594197         0.00000000       0.00000000       0.00000000          1
H         4.19099338      12.11726277       4.45988547         0.00000000       0.00000000       0.00000000          1
H         3.46649429      13.32937897       6.87031805         0.00000000       0.00000000       0.00000000          1
H         3.45924421      14.81299620       4.50323145         0.00000000       0.00000000       0.00000000          1
6
pbc=[F, F, F] list_num_par=6 frozen=false iter=20000 energy=-1.26974174 Lattice="15.00000000 0.00000000 0.00000000 0.00000000 15.00000000 0.00000000 0.00000000 0.00000000 15.00000000" energy_frozen_part=0.00000000 Properties=species:S:1:pos:R:3:velocities:R:3:Z:I:1
H         1.76936167      12.92566823       3.32562476         0.00000000       0.00000000       0.00000000          1
H         1.77674558      11.44195295       5.69264994         0.00000000       0.00000000       0.00000000          1
H         1.04491886      14.13766119       5.73612638         0.00000000       0.00000000       0.00000000          1
H         4.19097430      12.11724873       4.45987866         0.00000000       0.00000000       0.00000000          1
H         3.46652652      13.32924162       6.87038699         0.00000000       0.00000000       0.00000000          1
H         3.45915455      14.81295430       4.50335439         0.00000000       0.00000000       0.00000000          1
6
pbc=[F, F, F] list_num_par=6 frozen=false iter=20000 energy=-1.26974174 Lattice="15.00000000 0.00000000 0.00000000 0.00000000 15.00000000 0.00000000 0.00000000 0.00000000 15.00000000" energy_frozen_part=0.00000000 Properties=species:S:1:pos:R:3:velocities:R:3:Z:I:1
H         1.75574165      12.93391519       3.33155257         0.00000000       0.00000000       0.00000000          1
H         1.77978532      11.43093378       5.68627935         0.00000000       0.00000000       0.00000000          1