6
pbc=[F, F, F] list_num_par=6 frozen=false iter=9 energy=13.73873179 Lattice="15.00000000 0.00000000 0.00000000 0.00000000 15.00000000 0.00000000 0.00000000 0.00000000 15.00000000" energy_frozen_part=0.00000000 Properties=species:S:1:pos:R:3:velocities:R:3:Z:I:1
H        11.91228761       2.53708887       1.32915749         0.00000000       0.00000000       0.00000000          1
H        10.32218582       2.91394996       2.16408666         0.00000000       0.00000000       0.00000000          1
H        13.81269494       7.90453824      11.34454994         0.00000000       0.00000000       0.00000000          1
H         9.06237025       6.48253915       3.57979127         0.00000000       0.00000000       0.00000000          1
H         7.15369449       7.24612920       7.79182570         0.00000000       0.00000000       0.00000000          1
H         5.10908860       4.40739326       2.83490238         0.00000000       0.00000000       0.00000000          1
6
pbc=[F, F, F] list_num_par=6 frozen=false iter=19 energy=1.28144592 Lattice="15.00000000 0.00000000 0.00000000 0.00000000 15.00000000 0.00000000 0.00000000 0.00000000 15.00000000" energy_frozen_part=0.00000000 Properties=species:S:1:pos:R:3:velocities:R:3:Z:I:1
H        10.38484873       0.08239168       2.00140251         0.00000000       0.00000000       0.00000000          1
H         7.52346157       8.26389639       3.56985991         0.00000000       0.00000000       0.00000000          1
H         1.95767699       7.62617492       9.28503583         0.00000000       0.00000000       0.00000000          1
H         0.57528572       5.74957959      13.24563875         0.00000000       0.00000000       0.00000000          1
H         3.03858661       6.14060506       8.15704405         0.00000000       0.00000000       0.00000000          1
H         5.91115217       7.40533109       6.59407178         0.00000000       0.00000000       0.00000000          1
6
pbc=[F, F, F] list_num_par=6 frozen=false iter=29 energy=-0.00198597 Lattice="15.00000000 0.00000000 0.00000000 0.00000000 15.00000000 0.00000000 0.00000000 0.00000000 15.00000000" energy_frozen_part=0.00000000 Properties=species:S:1:pos:R:3:velocities:R:3:Z:I:1
H        12.60651783       5.35945447       8.23744232         0.00000000       0.00000000       0.00000000          1
H         0.05396975      10.39727227      10.94564685         0.00000000       0.00000000       0.00000000          1
H         3.84476299       9.71952967       3.10308754         0.00000000       0.00000000       0.00000000          1
H         3.89701520       3.75878165       0.34849435         0.00000000       0.00000000       0.00000000          1
H         9.52068751      14.89396304       2.69956397         0.00000000       0.00000000       0.00000000          1
H         9.61968044       2.11046682      14.53524605         0.00000000       0.00000000       0.00000000          1
6
pbc=[F, F, F] list_num_par=6 frozen=false iter=39 energy=-0.00834486 Lattice="15.00000000 0.00000000 0.00000000 0.00000000 15.00000000 0.00000000 0.00000000 0.00000000 15.00000000" energy_frozen_part=0.00000000 Properties=species:S:1:pos:R:3:velocities:R:3:Z:I:1
H         2.77315645       5.87042376       2.48113861         0.00000000       0.00000000       0.00000000          1
H         3.51209464      14.00318003      14.72211227         0.00000000       0.00000000       0.00000000          1
H         8.53627133      10.68970995       2.12940471         0.00000000       0.00000000       0.00000000          1
H         7.27717350       5.07018953       8.06171835         0.00000000       0.00000000       0.00000000          1
H        13.23440682       4.42471828       3.99019137         0.00000000       0.00000000       0.00000000          1
H         1.04520485       3.54961523       6.72863629         0.00000000       0.00000000       0.00000000          1
6
pbc=[F, F, F] list_num_par=6 frozen=false iter=49 energy=-0.01141632 Lattice="15.00000000 0.00000000 0.00000000 0.00000000 15.00000000 0.00000000 0.00000000 0.00000000 15.00000000" energy_frozen_part=0.00000000 Properties=species:S:1:pos:R:3:velocities:R:3:Z:I:1
H        14.81011964       4.71088566      12.25932198         0.00000000       0.00000000       0.00000000          1
H        11.57468187       8.84239502       9.28755767         0.00000000       0.00000000       0.00000000          1
H         7.21463117      11.01131937       8.59404300         0.00000000       0.00000000       0.00000000          1
H         2.02919682       4.39578918      12.11072026         0.00000000       0.00000000       0.00000000          1
H         7.61929127       3.55415574      14.34674797         0.00000000       0.00000000       0.00000000          1
H         2.70570112      10.53786434       1.93439729         0.00000000       0.00000000       0.00000000          1
6
pbc=[F, F, F] list_num_par=6 frozen=false iter=59 energy=-0.01439727 Lattice="15.00000000 0.00000000 0.00000000 0.00000000 15.00000000 0.00000000 0.00000000 0.00000000 15.00000000" energy_frozen_part=0.00000000 Properties=species:S:1:pos:R:3:velocities:R:3:Z:I:1
H         9.20609394      12.97228115       9.85133356         0.00000000       0.00000000       0.00000000          1
H         3.98731247       4.60278155       9.39184914         0.00000000       0.00000000       0.00000000          1
H         7.77250669       1.32271039       5.14599284         0.00000000       0.00000000       0.00000000          1
H         6.93643526       5.12230181       2.69906699         0.00000000       0.00000000       0.00000000          1
H         2.18188498      14.17079494       3.76633441         0.00000000       0.00000000       0.00000000          1
H         1.53108824       9.90646128      10.30127833         0.00000000       0.00000000       0.00000000          1
6
pbc=[F, F, F] list_num_par=6 frozen=false iter=69 energy=-0.01600251 Lattice="15.00000000 0.00000000 0.00000000 0.00000000 15.00000000 0.00000000 0.00000000 0.00000000 15.00000000" energy_frozen_part=0.00000000 Properties=species:S:1:pos:R:3:velocities:R:3:Z:I:1
H         3.22941299       6.71242643      13.39949416         0.00000000       0.00000000       0.00000000          1
H         0.81335484      10.31583609      14.82035668         0.00000000       0.00000000       0.00000000          1
H         3.00538111       4.41761322       5.30666043         0.00000000       0.00000000       0.00000000          1
H         4.44238053       0.05466637       2.26484492         0.00000000       0.00000000       0.00000000          1
H        14.86255361      12.09415032       2.60880447         0.00000000       0.00000000       0.00000000          1
H         8.31909971       5.19324148       8.88629251         0.00000000       0.00000000       0.00000000          1
6
pbc=[F, F, F] list_num_par=6 frozen=false iter=79 energy=-0.01883366 Lattice="15.00000000 0.00000000 0.00000000 0.00000000 15.00000000 0.00000000 0.00000000 0.00000000 15.00000000" energy_frozen_part=0.00000000 Properties=species:S:1:pos:R:3:velocities:R:3:Z:I:1
H         3.76516180       2.97270821      10.96257015         0.00000000       0.00000000       0.00000000          1
H         0.53006301      13.94425454       6.30623608         0.00000000       0.00000000       0.00000000          1
H         9.88293662      10.19029689       5.56771761         0.00000000       0.00000000       0.00000000          1
H         7.21504799       3.34511704       8.21103419         0.00000000       0.00000000       0.00000000          1
H         3.71276114      10.39588110       3.91677606         0.00000000       0.00000000       0.00000000          1
H        10.76393741       4.83237629       0.26753557         0.00000000       0.00000000       0.00000000          1
6
pbc=[F, F, F] list_num_par=6 frozen=false iter=89 energy=-0.02285861 Lattice="15.00000000 0.00000000 0.00000000 0.00000000 15.00000000 0.00000000 0.00000000 0.00000000 15.00000000" energy_frozen_part=0.00000000 Properties=species:S:1:pos:R:3:velocities:R:3:Z:I:1
H        10.36459548      12.90931007       9.60349956         0.00000000       0.00000000       0.00000000          1
H         4.45469154       4.77949141       9.84607992         0.00000000       0.00000000       0.00000000          1
H         7.41545263       1.51612276       4.27275231         0.00000000       0.00000000       0.00000000          1
H         7.32169126       5.45651040       3.12819797         0.00000000       0.00000000       0.00000000          1
H         2.26172081      14.27579095       4.15534847         0.00000000       0.00000000       0.00000000          1
H         2.13834464      10.26693148      10.82906604         0.00000000       0.00000000       0.00000000          1
6
pbc=[F, F, F] list_num_par=6 frozen=false iter=99 energy=-0.02868545 Lattice="15.00000000 0.00000000 0.00000000 0.00000000 15.00000000 0.00000000 0.00000000 0.00000000 15.00000000" energy_frozen_part=0.00000000 Properties=species:S:1:pos:R:3:velocities:R:3:Z:I:1
H         2.38704896       3.71969306      12.42934324         0.00000000       0.00000000       0.00000000          1
H         7.03336834       7.77749049       8.72434253         0.00000000       0.00000000       0.00000000          1
H         1.67838241       0.45512638       9.21396139         0.00000000       0.00000000       0.00000000          1
H         9.02755657      11.03763034       4.17613397         0.00000000       0.00000000       0.00000000          1
H         8.91909360       3.73178360       1.93740523         0.00000000       0.00000000       0.00000000          1
H        12.18512625      13.79088297       3.44652318         0.00000000       0.00000000       0.00000000          1
6
pbc=[F, F, F] list_num_par=6 frozen=false iter=109 energy=-0.03154047 Lattice="15.00000000 0.00000000 0.00000000 0.00000000 15.00000000 0.00000000 0.00000000 0.00000000 15.00000000" energy_frozen_part=0.00000000 Properties=species:S:1:pos:R:3:velocities:R:3:Z:I:1
H         6.66378802       7.89047041       6.79942642         0.00000000       0.00000000       0.00000000          1
H        11.44763761       2.08816115      13.95939352         0.00000000       0.00000000       0.00000000          1
H         9.94657080       9.09559498      11.10547720         0.00000000       0.00000000       0.00000000          1
H         6.43877322       9.98553439       0.13033935         0.00000000       0.00000000       0.00000000          1
H         7.45643561       6.34863332      13.50163273         0.00000000       0.00000000       0.00000000          1
H        14.32847482       5.58529127      14.81684659         0.00000000       0.00000000       0.00000000          1
6
pbc=[F, F, F] list_num_par=6 frozen=false iter=119 energy=-0.03383061 Lattice="15.00000000 0.00000000 0.00000000 0.00000000 15.00000000 0.00000000 0.00000000 0.00000000 15.00000000" energy_frozen_part=0.00000000 Properties=species:S:1:pos:R:3:velocities:R:3:Z:I:1
H         9.88924190      10.90105758      13.31435474         0.00000000       0.00000000       0.00000000          1
H        14.81310985       0.63350342      10.87476526         0.00000000       0.00000000       0.00000000          1
H         3.49843531       4.44523322       7.34989442         0.00000000       0.00000000       0.00000000          1
H        11.72397087      14.53941641       9.81942762         0.00000000       0.00000000       0.00000000          1
H         3.98928881      11.33601631       7.10563174         0.00000000       0.00000000       0.00000000          1
H         2.56533373      14.42163583       5.35957474         0.00000000       0.00000000       0.00000000          1
6
pbc=[F, F, F] list_num_par=6 frozen=false iter=129 energy=-0.04067360 Lattice="15.00000000 0.00000000 0.00000000 0.00000000 15.00000000 0.00000000 0.00000000 0.00000000 15.00000000" energy_frozen_part=0.00000000 Properties=species:S:1:pos:R:3:velocities:R:3:Z:I:1
H        11.05372722       8.25385652       3.28003327         0.00000000       0.00000000       0.00000000          1
H         4.91516422      12.15853013       3.78033700         0.00000000       0.00000000       0.00000000          1
H         4.62995357       1.47611663       8.36771778         0.00000000       0.00000000       0.00000000          1
H         7.79490074       6.94018871       5.42436673         0.00000000       0.00000000       0.00000000          1
H         3.20328019       6.79859340       5.56910328         0.00000000       0.00000000       0.00000000          1
H        10.49074507      13.93642596       4.81673772         0.00000000       0.00000000       0.00000000          1
6
pbc=[F, F, F] list_num_par=6 frozen=false iter=139 energy=-0.04488404 Lattice="15.00000000 0.00000000 0.00000000 0.00000000 15.00000000 0.00000000 0.00000000 0.00000000 15.00000000" energy_frozen_part=0.00000000 Properties=species:S:1:pos:R:3:velocities:R:3:Z:I:1
H         1.81861281       8.51155731      10.82459751         0.00000000       0.00000000       0.00000000          1
H        10.92916731       3.51417697       4.37272029         0.00000000       0.00000000       0.00000000          1
H         5.89628928       6.66089179      13.69945406         0.00000000       0.00000000       0.00000000          1
H         8.69541459       8.84770647      12.62131506         0.00000000       0.00000000       0.00000000          1
H         5.04943905       2.36100861      10.14365481         0.00000000       0.00000000       0.00000000          1
H         3.74889517       8.12967639       4.91908267         0.00000000       0.00000000       0.00000000          1
6
pbc=[F, F, F] list_num_par=6 frozen=false iter=149 energy=-0.04986664 Lattice="15.00000000 0.00000000 0.00000000 0.00000000 15.00000000 0.00000000 0.00000000 0.00000000 15.00000000" energy_frozen_part=0.00000000 Properties=species:S:1:pos:R:3:velocities:R:3:Z:I:1
H         3.23288337      12.16894454       4.10726717         0.00000000       0.00000000       0.00000000          1
H         4.89520996       2.31812425       3.82499887         0.00000000       0.00000000       0.00000000          1
H         5.91926042       8.16129420       5.64392650         0.00000000       0.00000000       0.00000000          1
H        14.20942085       3.61913268       4.44624032         0.00000000       0.00000000       0.00000000          1
H        12.11532346       6.00004222       2.77650374         0.00000000       0.00000000       0.00000000          1
H        12.47796823       8.74417156       9.99198110         0.00000000       0.00000000       0.00000000          1
6
pbc=[F, F, F] list_num_par=6 frozen=false iter=159 energy=-0.05230217 Lattice="15.00000000 0.00000000 0.00000000 0.00000000 15.00000000 0.00000000 0.00000000 0.00000000 15.00000000" energy_frozen_part=0.00000000 Properties=species:S:1:pos:R:3:velocities:R:3:Z:I:1
H         3.30649616      11.28767548      14.88864567         0.00000000       0.00000000       0.00000000          1
H         6.33167187       7.49151188       6.75900087         0.00000000       0.00000000       0.00000000          1
H         8.21091444       1.75139123      12.22194898         0.00000000       0.00000000       0.00000000          1
H         9.81455098      12.47023338       1.42175256         0.00000000       0.00000000       0.00000000          1
H        14.04881680       2.13464182       0.80975683         0.00000000       0.00000000       0.00000000          1
H        10.33770338      13.53967025       4.63170952         0.00000000       0.00000000       0.00000000          1
6
pbc=[F, F, F] list_num_par=6 frozen=false iter=169 energy=-0.05601625 Lattice="15.00000000 0.00000000 0.00000000 0.00000000 15.00000000 0.00000000 0.00000000 0.00000000 15.00000000" energy_frozen_part=0.00000000 Properties=species:S:1:pos:R:3:velocities:R:3:Z:I:1
H         2.04969775       1.22081653       3.56129821         0.00000000       0.00000000       0.00000000          1
H        13.43819351       2.70404971      10.58152229         0.00000000       0.00000000       0.00000000          1
H        13.05172319      11.47309636       6.08895572         0.00000000       0.00000000       0.00000000          1
H         5.84775026      14.85092861      14.02448893         0.00000000       0.00000000       0.00000000          1
H         1.08035520       5.29174279       4.69908417         0.00000000       0.00000000       0.00000000          1
H        12.49086803       5.83369734       9.11438530         0.00000000       0.00000000       0.00000000          1
6
pbc=[F, F, F] list_num_par=6 frozen=false iter=179 energy=-0.05901288 Lattice="15.00000000 0.00000000 0.00000000 0.00000000 15.00000000 0.00000000 0.00000000 0.00000000 15.00000000" energy_frozen_part=0.00000000 Properties=species:S:1:pos:R:3:velocities:R:3:Z:I:1
H         4.59648928       5.79960425       7.24233939         0.00000000       0.00000000       0.00000000          1
H        14.42061299      14.03308848      14.39439702         0.00000000       0.00000000       0.00000000          1
H         0.59089586      11.41632867       9.77458258         0.00000000       0.00000000       0.00000000          1
H        10.47755622       9.44903702       8.72165269         0.00000000       0.00000000       0.00000000          1
H         2.03572130       9.18775844      11.86525765         0.00000000       0.00000000       0.00000000          1
H         5.11821465      10.94451481       2.84315481         0.00000000       0.00000000       0.00000000          1
6
pbc=[F, F, F] list_num_par=6 frozen=false iter=189 energy=-0.06122079 Lattice="15.00000000 0.00000000 0.00000000 0.00000000 15.00000000 0.00000000 0.00000000 0.00000000 15.00000000" energy_frozen_part=0.00000000 Properties=species:S:1:pos:R:3:velocities:R:3:Z:I:1
H        11.83699565       1.71106083       2.16938861         0.00000000       0.00000000       0.00000000          1
H        10.75388654       8.27330722      10.03597462         0.00000000       0.00000000       0.00000000          1
H         8.84883813      11.04016920       9.04194004         0.00000000       0.00000000       0.00000000          1
H         0.50172444       4.80502017       1.10925163         0.00000000       0.00000000       0.00000000          1
H         5.92354171      13.66427420      11.19437962         0.00000000       0.00000000       0.00000000          1
H         1.21545732       6.30213911       6.38646463         0.00000000       0.00000000       0.00000000          1
6
pbc=[F, F, F] list_num_par=6 frozen=false iter=199 energy=-0.06483021 Lattice="15.00000000 0.00000000 0.00000000 0.00000000 15.00000000 0.00000000 0.00000000 0.00000000 15.00000000" energy_frozen_part=0.00000000 Properties=species:S:1:pos:R:3:velocities:R:3:Z:I:1
H        13.20540698       2.14871099       0.06363555         0.00000000       0.00000000       0.00000000          1
H         3.12252166       7.83741672      13.46185280         0.00000000       0.00000000       0.00000000          1
H         9.99538965       2.34840725      14.30006498         0.00000000       0.00000000       0.00000000          1
H         1.37268536       7.71993269       1.61040840         0.00000000       0.00000000       0.00000000          1
H        10.02210963       1.07820704       1.78438671         0.00000000       0.00000000       0.00000000          1
H         6.90045457       0.38895324       3.68652423         0.00000000       0.00000000       0.00000000          1
6
pbc=[F, F, F] list_num_par=6 frozen=false iter=209 energy=-0.07005418 Lattice="15.00000000 0.00000000 0.00000000 0.00000000 15.00000000 0.00000000 0.00000000 0.00000000 15.00000000" energy_frozen_part=0.00000000 Properties=species:S:1:pos:R:3:velocities:R:3:Z:I:1
H        10.78960282       4.92963077      10.13803837         0.00000000       0.00000000       0.00000000          1
H         1.56214273       5.10515623      13.52908715         0.00000000       0.00000000       0.00000000          1
H         3.27717285       7.47239670      11.64527526         0.00000000       0.00000000       0.00000000          1
H         7.43673899      14.00909969      11.02707197         0.00000000       0.00000000       0.00000000          1
H         6.72965410       0.37203848      13.84302403         0.00000000       0.00000000       0.00000000          1
H        10.37801440       6.03986307      14.08550080         0.00000000       0.00000000       0.00000000          1
6
pbc=[F, F, F] list_num_par=6 frozen=false iter=219 energy=-0.07807581 Lattice="15.00000000 0.00000000 0.00000000 0.00000000 15.00000000 0.00000000 0.00000000 0.00000000 15.00000000" energy_frozen_part=0.00000000 Properties=species:S:1:pos:R:3:velocities:R:3:Z:I:1
H        14.82192458       7.49806696      10.20472748         0.00000000       0.00000000       0.00000000          1
H         0.65789977       0.13467316       5.63844801         0.00000000       0.00000000       0.00000000          1
H         1.43545449       6.62408751       6.28061635         0.00000000       0.00000000       0.00000000          1
H         4.83865478      14.03207187       7.54141287         0.00000000       0.00000000       0.00000000          1
H         4.10681561       4.96237898       7.00899190         0.00000000       0.00000000       0.00000000          1
H        12.49860390       9.00469506      14.17011464         0.00000000       0.00000000       0.00000000          1
6
pbc=[F, F, F] list_num_par=6 frozen=false iter=229 energy=-0.08281825 Lattice="15.00000000 0.00000000 0.00000000 0.00000000 15.00000000 0.00000000 0.00000000 0.00000000 15.00000000" energy_frozen_part=0.00000000 Properties=species:S:1:pos:R:3:velocities:R:3:Z:I:1
H         5.09099010      11.89497120       9.96323298         0.00000000       0.00000000       0.00000000          1
H         2.84164474      13.72577713       2.36741436         0.00000000       0.00000000       0.00000000          1
H         9.73696157       4.33749343       8.45981425         0.00000000       0.00000000       0.00000000          1
H        10.38489832       7.45200041       0.26318689         0.00000000       0.00000000       0.00000000          1
H        14.98553937       0.53728642       5.27513592         0.00000000       0.00000000       0.00000000          1
H        12.40825715       1.04085021       3.63504861         0.00000000       0.00000000       0.00000000          1
6
pbc=[F, F, F] list_num_par=6 frozen=false iter=239 energy=-0.08611168 Lattice="15.00000000 0.00000000 0.00000000 0.00000000 15.00000000 0.00000000 0.00000000 0.00000000 15.00000000" energy_frozen_part=0.00000000 Properties=species:S:1:pos:R:3:velocities:R:3:Z:I:1
H        14.22187602      13.69420960       9.54686266         0.00000000       0.00000000       0.00000000          1
H         6.96659117       3.51519208       9.55623053         0.00000000       0.00000000       0.00000000          1
H         2.35474563       7.70557860      12.63691482         0.00000000       0.00000000       0.00000000          1
H         4.58042165       2.55115652      10.12605960         0.00000000       0.00000000       0.00000000          1
H         8.24817171      10.55823711       3.41329909         0.00000000       0.00000000       0.00000000          1
H        10.89107314       4.32655856      13.18853643         0.00000000       0.00000000       0.00000000          1
6
pbc=[F, F, F] list_num_par=6 frozen=false iter=249 energy=-0.08841636 Lattice="15.00000000 0.00000000 0.00000000 0.00000000 15.00000000 0.00000000 0.00000000 0.00000000 15.00000000" energy_frozen_part=0.00000000 Properties=species:S:1:pos:R:3:velocities:R:3:Z:I:1
H         9.22064594      10.20318621       4.03901763         0.00000000       0.00000000       0.00000000          1
H        14.52324099      13.46400556      11.48188161         0.00000000       0.00000000       0.00000000          1
H         3.79411920      14.15036738       5.62355187         0.00000000       0.00000000       0.00000000          1
H         3.91974141       7.44045495      11.92827152         0.00000000       0.00000000       0.00000000          1
H        14.91702059       7.37761928       3.86436407         0.00000000       0.00000000       0.00000000          1
H         6.87082414      11.46213896       5.88704883         0.00000000       0.00000000       0.00000000          1
6
pbc=[F, F, F] list_num_par=6 frozen=false iter=259 energy=-0.09126285 Lattice="15.00000000 0.00000000 0.00000000 0.00000000 15.00000000 0.00000000 0.00000000 0.00000000 15.00000000" energy_frozen_part=0.00000000 Properties=species:S:1:pos:R:3:velocities:R:3:Z:I:1
H        14.60742767       0.53560828       1.71614668         0.00000000       0.00000000       0.00000000          1
H         0.04285884       4.71353381      14.46280467         0.00000000       0.00000000       0.00000000          1
H         5.11017569       9.99850977       3.21419191         0.00000000       0.00000000       0.00000000          1
H        12.77145333       9.42546182      11.37344217         0.00000000       0.00000000       0.00000000          1
H        12.06781288       3.22349302      14.00273841         0.00000000       0.00000000       0.00000000          1
H         2.49388420       9.91709140       3.80311319         0.00000000       0.00000000       0.00000000          1
6
pbc=[F, F, F] list_num_par=6 frozen=false iter=269 energy=-0.09440513 Lattice="15.00000000 0.00000000 0.00000000 0.00000000 15.00000000 0.00000000 0.00000000 0.00000000 15.00000000" energy_frozen_part=0.00000000 Properties=species:S:1:pos:R:3:velocities:R:3:Z:I:1
H        14.73075431      13.14968739       5.09377874         0.00000000       0.00000000       0.00000000          1
H         6.01492063       7.17081165      11.05666997         0.00000000       0.00000000       0.00000000          1
H         5.07160734      11.20711010       6.66085103         0.00000000       0.00000000       0.00000000          1
H         3.09009192       3.76459440       7.06915223         0.00000000       0.00000000       0.00000000          1
H         4.16560451       6.84839690       6.23561982         0.00000000       0.00000000       0.00000000          1
H         2.12390329       0.42938775       9.39966368         0.00000000       0.00000000       0.00000000          1
6
pbc=[F, F, F] list_num_par=6 frozen=false iter=279 energy=-0.09705174 Lattice="15.00000000 0.00000000 0.00000000 0.00000000 15.00000000 0.00000000 0.00000000 0.00000000 15.00000000" energy_frozen_part=0.00000000 Properties=species:S:1:pos:R:3:velocities:R:3:Z:I:1
H        12.61474855       9.74864779       6.45212174         0.00000000       0.00000000       0.00000000          1
H        10.47237441      11.72432750       5.79838300         0.00000000       0.00000000       0.00000000          1
H         4.34905915       7.63525976       6.97909648         0.00000000       0.00000000       0.00000000          1
H        12.85684762       3.57750710      11.07123749         0.00000000       0.00000000       0.00000000          1
H         4.06480858      13.45592683       8.54108426         0.00000000       0.00000000       0.00000000          1
H         3.23863273      11.73894137       2.49632190         0.00000000       0.00000000       0.00000000          1
6
pbc=[F, F, F] list_num_par=6 frozen=false iter=289 energy=-0.10013990 Lattice="15.00000000 0.00000000 0.00000000 0.00000000 15.00000000 0.00000000 0.00000000 0.00000000 15.00000000" energy_frozen_part=0.00000000 Properties=species:S:1:pos:R:3:velocities:R:3:Z:I:1
H        14.52142320       5.08564309       6.61508501         0.00000000       0.00000000       0.00000000          1
H         7.59511046       4.98638973      12.10473712         0.00000000       0.00000000       0.00000000          1
H        13.76879817       2.20693598       1.55081408         0.00000000       0.00000000       0.00000000          1
H        10.12921608      12.71310361       5.93722109         0.00000000       0.00000000       0.00000000          1
H        10.53060316      14.18430588      14.06717282         0.00000000       0.00000000       0.00000000          1
H        10.88222543      11.85007000       3.45208418         0.00000000       0.00000000       0.00000000          1
6
pbc=[F, F, F] list_num_par=6 frozen=false iter=299 energy=-0.10134907 Lattice="15.00000000 0.00000000 0.00000000 0.00000000 15.00000000 0.00000000 0.00000000 0.00000000 15.00000000" energy_frozen_part=0.00000000 Properties=species:S:1:pos:R:3:velocities:R:3:Z:I:1
H         1.96095600       4.43933890      11.70866997         0.00000000       0.00000000       0.00000000          1
H         6.90488878       9.14608686       1.44538930         0.00000000       0.00000000       0.00000000          1
H         8.49484936       0.06795485      14.21540928         0.00000000       0.00000000       0.00000000          1
H        12.30767857      12.23929976       2.58999114         0.00000000       0.00000000       0.00000000          1
H        12.92658564       2.69062601       3.60800227         0.00000000       0.00000000       0.00000000          1
H        11.61898207       1.99591784       1.18684841         0.00000000       0.00000000       0.00000000          1
6
pbc=[F, F, F] list_num_par=6 frozen=false iter=309 energy=-0.10420310 Lattice="15.00000000 0.00000000 0.00000000 0.00000000 15.00000000 0.00000000 0.00000000 0.00000000 15.00000000" energy_frozen_part=0.00000000 Properties=species:S:1:pos:R:3:velocities:R:3:Z:I:1
H         7.27383185       2.62519242       1.40921049         0.00000000       0.00000000       0.00000000          1
H         3.06004347      11.99799108      12.09861832         0.00000000       0.00000000       0.00000000          1