6
pbc=[F, F, F] list_num_par=6 frozen=false iter=9 energy=142.58513877 Lattice="15.00000000 0.00000000 0.00000000 0.00000000 15.00000000 0.00000000 0.00000000 0.00000000 15.00000000" energy_frozen_part=0.00000000 Properties=species:S:1:pos:R:3:velocities:R:3:Z:I:1
H         7.23831802       3.57056194       6.38015377         0.00000000       0.00000000       0.00000000          1
H         9.10824934       4.63624240       2.72161028         0.00000000       0.00000000       0.00000000          1
H         4.49923589       2.33307425       8.50111740         0.00000000       0.00000000       0.00000000          1
H         9.61009400       0.20036148      11.39509768         0.00000000       0.00000000       0.00000000          1
H         9.35019681       4.54206658       1.21862024         0.00000000       0.00000000       0.00000000          1
H        10.27840855       9.61825644       7.88502502         0.00000000       0.00000000       0.00000000          1
6
pbc=[F, F, F] list_num_par=6 frozen=false iter=19 energy=4.80496234 Lattice="15.00000000 0.00000000 0.00000000 0.00000000 15.00000000 0.00000000 0.00000000 0.00000000 15.00000000" energy_frozen_part=0.00000000 Properties=species:S:1:pos:R:3:velocities:R:3:Z:I:1
H         5.41198666       2.81295714       8.11538526         0.00000000       0.00000000       0.00000000          1
H         5.00465810       7.72268528      12.10027764         0.00000000       0.00000000       0.00000000          1
H        13.85924687      13.66048021       6.14274541         0.00000000       0.00000000       0.00000000          1
H        12.71461515       8.63780175      11.64102477         0.00000000       0.00000000       0.00000000          1
H        13.30809254       6.88625079      10.92262828         0.00000000       0.00000000       0.00000000          1
H         0.71337831      12.58919106      11.59415049         0.00000000       0.00000000       0.00000000          1
6
pbc=[F, F, F] list_num_par=6 frozen=false iter=29 energy=0.30222096 Lattice="15.00000000 0.00000000 0.00000000 0.00000000 15.00000000 0.00000000 0.00000000 0.00000000 15.00000000" energy_frozen_part=0.00000000 Properties=species:S:1:pos:R:3:velocities:R:3:Z:I:1
H         6.34094934       4.85557000       6.82341849         0.00000000       0.00000000       0.00000000          1
H        13.28049132       9.87350598       1.22770426         0.00000000       0.00000000       0.00000000          1
H         1.75711045       7.17820180       9.48728461         0.00000000       0.00000000       0.00000000          1
H         1.47299178      12.18272371      11.51527178         0.00000000       0.00000000       0.00000000          1
H        11.32454149       9.29513479       2.35976240         0.00000000       0.00000000       0.00000000          1
H         6.93047071       1.22774266       2.72283582         0.00000000       0.00000000       0.00000000          1
6
pbc=[F, F, F] list_num_par=6 frozen=false iter=39 energy=-0.00208326 Lattice="15.00000000 0.00000000 0.00000000 0.00000000 15.00000000 0.00000000 0.00000000 0.00000000 15.00000000" energy_frozen_part=0.00000000 Properties=species:S:1:pos:R:3:velocities:R:3:Z:I:1
H         3.98908621      11.59488058       8.65816201         0.00000000       0.00000000       0.00000000          1
H         4.09804194       2.52026152       3.84615564         0.00000000       0.00000000       0.00000000          1
H        11.41874456      13.36488291       5.03442348         0.00000000       0.00000000       0.00000000          1
H        10.39395904       8.42442909      11.42077908         0.00000000       0.00000000       0.00000000          1
H         8.24280033       1.68954421       9.49895359         0.00000000       0.00000000       0.00000000          1
H        12.86560752       0.90116545       1.01301115         0.00000000       0.00000000       0.00000000          1
6
pbc=[F, F, F] list_num_par=6 frozen=false iter=49 energy=-0.00573612 Lattice="15.00000000 0.00000000 0.00000000 0.00000000 15.00000000 0.00000000 0.00000000 0.00000000 15.00000000" energy_frozen_part=0.00000000 Properties=species:S:1:pos:R:3:velocities:R:3:Z:I:1
H        13.33825281       4.18503597       1.49383727         0.00000000       0.00000000       0.00000000          1
H         7.76752156       2.21193969       0.22266597         0.00000000       0.00000000       0.00000000          1
H         0.01718043       4.94046675      13.87391528         0.00000000       0.00000000       0.00000000          1
H        11.76729640       4.32449682      11.07081033         0.00000000       0.00000000       0.00000000          1
H        13.54419993      11.05694923       5.13126555         0.00000000       0.00000000       0.00000000          1
H        12.98080457       0.38985711       6.76569158         0.00000000       0.00000000       0.00000000          1
6
pbc=[F, F, F] list_num_par=6 frozen=false iter=59 energy=-0.00828869 Lattice="15.00000000 0.00000000 0.00000000 0.00000000 15.00000000 0.00000000 0.00000000 0.00000000 15.00000000" energy_frozen_part=0.00000000 Properties=species:S:1:pos:R:3:velocities:R:3:Z:I:1
H         4.64855181       6.61537829       3.07066199         0.00000000       0.00000000       0.00000000          1
H         0.22806351       4.00394150      10.58004331         0.00000000       0.00000000       0.00000000          1
H        11.23683394       6.69226847       2.52493704         0.00000000       0.00000000       0.00000000          1
H         1.50457143      10.12433193      13.92514835         0.00000000       0.00000000       0.00000000          1
H        10.68157355       1.22858394       5.08523505         0.00000000       0.00000000       0.00000000          1
H         7.80029733       3.63904790       9.13141868         0.00000000       0.00000000       0.00000000          1
6
pbc=[F, F, F] list_num_par=6 frozen=false iter=69 energy=-0.01123753 Lattice="15.00000000 0.00000000 0.00000000 0.00000000 15.00000000 0.00000000 0.00000000 0.00000000 15.00000000" energy_frozen_part=0.00000000 Properties=species:S:1:pos:R:3:velocities:R:3:Z:I:1
H         6.94259778      13.05911098       6.08194539         0.00000000       0.00000000       0.00000000          1
H        11.03765976      14.35581179       2.74868478         0.00000000       0.00000000       0.00000000          1
H        10.98113356       6.82835702       0.41968327         0.00000000       0.00000000       0.00000000          1
H         1.00372709      10.40847215       3.01805354         0.00000000       0.00000000       0.00000000          1
H         4.62456080       1.31453561      12.89183365         0.00000000       0.00000000       0.00000000          1
H         6.88021032       8.75234482       8.58517610         0.00000000       0.00000000       0.00000000          1
6
pbc=[F, F, F] list_num_par=6 frozen=false iter=79 energy=-0.01511210 Lattice="15.00000000 0.00000000 0.00000000 0.00000000 15.00000000 0.00000000 0.00000000 0.00000000 15.00000000" energy_frozen_part=0.00000000 Properties=species:S:1:pos:R:3:velocities:R:3:Z:I:1
H         1.19262865       9.07196625       3.06331833         0.00000000       0.00000000       0.00000000          1
H        14.71810551      12.64441830       5.18824600         0.00000000       0.00000000       0.00000000          1
H         2.56783300       7.66162349       7.38407748         0.00000000       0.00000000       0.00000000          1
H        14.54195643       4.05101425       5.29225587         0.00000000       0.00000000       0.00000000          1
H        13.20689277      14.57990220       4.68702286         0.00000000       0.00000000       0.00000000          1
H         3.08502839      14.86234411       7.57990232         0.00000000       0.00000000       0.00000000          1
6
pbc=[F, F, F] list_num_par=6 frozen=false iter=89 energy=-0.01663398 Lattice="15.00000000 0.00000000 0.00000000 0.00000000 15.00000000 0.00000000 0.00000000 0.00000000 15.00000000" energy_frozen_part=0.00000000 Properties=species:S:1:pos:R:3:velocities:R:3:Z:I:1
H         7.40784028       5.53862509       8.37800181         0.00000000       0.00000000       0.00000000          1
H         3.86516125      10.60563985       9.10921197         0.00000000       0.00000000       0.00000000          1
H        11.24169040      11.52034176       4.22888895         0.00000000       0.00000000       0.00000000          1
H         1.56126459       6.77013107       5.39779375         0.00000000       0.00000000       0.00000000          1
H        10.85756595      14.68746160      12.46798441         0.00000000       0.00000000       0.00000000          1
H         4.69401864       2.16615093       6.40477594         0.00000000       0.00000000       0.00000000          1
6
pbc=[F, F, F] list_num_par=6 frozen=false iter=99 energy=-0.02176150 Lattice="15.00000000 0.00000000 0.00000000 0.00000000 15.00000000 0.00000000 0.00000000 0.00000000 15.00000000" energy_frozen_part=0.00000000 Properties=species:S:1:pos:R:3:velocities:R:3:Z:I:1
H         1.73232855       8.69189179       2.26277722         0.00000000       0.00000000       0.00000000          1
H         1.50586669      10.45329742      12.98594030         0.00000000       0.00000000       0.00000000          1
H         7.42681996       1.34197517       0.07863446         0.00000000       0.00000000       0.00000000          1
H         7.89589690      12.45662285       5.39632231         0.00000000       0.00000000       0.00000000          1
H         0.07562598       3.98683686       2.57968773         0.00000000       0.00000000       0.00000000          1
H         3.87214672       9.28124555       9.51365641         0.00000000       0.00000000       0.00000000          1
6
pbc=[F, F, F] list_num_par=6 frozen=false iter=109 energy=-0.02728701 Lattice="15.00000000 0.00000000 0.00000000 0.00000000 15.00000000 0.00000000 0.00000000 0.00000000 15.00000000" energy_frozen_part=0.00000000 Properties=species:S:1:pos:R:3:velocities:R:3:Z:I:1
H        13.03739765       9.80402754       2.05625782         0.00000000       0.00000000       0.00000000          1
H         5.43115270      10.19596432      11.87002553         0.00000000       0.00000000       0.00000000          1
H         5.15784985       1.90958853       1.56323430         0.00000000       0.00000000       0.00000000          1
H         4.25417356       7.02996292       1.31644500         0.00000000       0.00000000       0.00000000          1
H         9.12036342       1.64122310       4.39307731         0.00000000       0.00000000       0.00000000          1
H         7.24453095       7.12545949       9.44838195         0.00000000       0.00000000       0.00000000          1
6
pbc=[F, F, F] list_num_par=6 frozen=false iter=119 energy=-0.03139936 Lattice="15.00000000 0.00000000 0.00000000 0.00000000 15.00000000 0.00000000 0.00000000 0.00000000 15.00000000" energy_frozen_part=0.00000000 Properties=species:S:1:pos:R:3:velocities:R:3:Z:I:1
H        10.33616213       2.63375341       8.87874970         0.00000000       0.00000000       0.00000000          1
H         1.41404094      12.73208100       6.71804608         0.00000000       0.00000000       0.00000000          1
H        11.15775810       3.12698533       3.42959418         0.00000000       0.00000000       0.00000000          1
H        13.71539442       4.95298370       8.10728788         0.00000000       0.00000000       0.00000000          1
H        10.38463112      13.07249837       6.49166726         0.00000000       0.00000000       0.00000000          1
H        14.96257444       8.77146699       4.94332935         0.00000000       0.00000000       0.00000000          1
6
pbc=[F, F, F] list_num_par=6 frozen=false iter=129 energy=-0.03435380 Lattice="15.00000000 0.00000000 0.00000000 0.00000000 15.00000000 0.00000000 0.00000000 0.00000000 15.00000000" energy_frozen_part=0.00000000 Properties=species:S:1:pos:R:3:velocities:R:3:Z:I:1
H         4.98357342       7.09608609      14.92306495         0.00000000       0.00000000       0.00000000          1
H         4.19430958       1.83371772       1.57865810         0.00000000       0.00000000       0.00000000          1
H         4.57505449       5.56506738       2.08003852         0.00000000       0.00000000       0.00000000          1
H         0.28893141       5.41443654       5.70508690         0.00000000       0.00000000       0.00000000          1
H         9.26110786      13.76248294       6.75247782         0.00000000       0.00000000       0.00000000          1
H        13.13065209       2.01061340      10.22438743         0.00000000       0.00000000       0.00000000          1
6
pbc=[F, F, F] list_num_par=6 frozen=false iter=139 energy=-0.04010111 Lattice="15.00000000 0.00000000 0.00000000 0.00000000 15.00000000 0.00000000 0.00000000 0.00000000 15.00000000" energy_frozen_part=0.00000000 Properties=species:S:1:pos:R:3:velocities:R:3:Z:I:1
H         7.38563954      10.51168325      10.23961167         0.00000000       0.00000000       0.00000000          1
H        12.73033215       3.68516142       5.60907900         0.00000000       0.00000000       0.00000000          1
H         3.80431765       1.39511492       8.13191478         0.00000000       0.00000000       0.00000000          1
H         2.32865450      10.11244210       5.73908765         0.00000000       0.00000000       0.00000000          1
H         8.19732649       8.22982728       7.43215871         0.00000000       0.00000000       0.00000000          1
H         4.27919707       6.91611842      13.99195069         0.00000000       0.00000000       0.00000000          1
6
pbc=[F, F, F] list_num_par=6 frozen=false iter=149 energy=-0.04420513 Lattice="15.00000000 0.00000000 0.00000000 0.00000000 15.00000000 0.00000000 0.00000000 0.00000000 15.00000000" energy_frozen_part=0.00000000 Properties=species:S:1:pos:R:3:velocities:R:3:Z:I:1
H         8.17895083      13.16747517      12.77180214         0.00000000       0.00000000       0.00000000          1
H         1.22383488      10.30104244      11.59927687         0.00000000       0.00000000       0.00000000          1
H         1.18171227       2.27320433      13.01776009         0.00000000       0.00000000       0.00000000          1
H         5.50190147      13.46028604       6.61159829         0.00000000       0.00000000       0.00000000          1
H         4.66218981       8.31590902       9.95001255         0.00000000       0.00000000       0.00000000          1
H         1.91030676       8.60287691       6.79877772         0.00000000       0.00000000       0.00000000          1
6
pbc=[F, F, F] list_num_par=6 frozen=false iter=159 energy=-0.04935513 Lattice="15.00000000 0.00000000 0.00000000 0.00000000 15.00000000 0.00000000 0.00000000 0.00000000 15.00000000" energy_frozen_part=0.00000000 Properties=species:S:1:pos:R:3:velocities:R:3:Z:I:1
H         6.56034135      14.63246350       1.34763779         0.00000000       0.00000000       0.00000000          1
H        14.38609553      10.42323600       2.32359316         0.00000000       0.00000000       0.00000000          1
H        10.01494361       9.48373258      11.40343231         0.00000000       0.00000000       0.00000000          1
H        13.06487247       8.22975831       2.19693435         0.00000000       0.00000000       0.00000000          1
H         0.08772378      14.70567810       3.04792472         0.00000000       0.00000000       0.00000000          1
H         4.82881425       3.64920763       6.18963877         0.00000000       0.00000000       0.00000000          1
6
pbc=[F, F, F] list_num_par=6 frozen=false iter=169 energy=-0.05747399 Lattice="15.00000000 0.00000000 0.00000000 0.00000000 15.00000000 0.00000000 0.00000000 0.00000000 15.00000000" energy_frozen_part=0.00000000 Properties=species:S:1:pos:R:3:velocities:R:3:Z:I:1
H         5.06520407      14.97126820       7.36076113         0.00000000       0.00000000       0.00000000          1
H         1.89539661       8.56559706      10.10740440         0.00000000       0.00000000       0.00000000          1
H        14.35339966       1.84209859      12.05469927         0.00000000       0.00000000       0.00000000          1
H        14.14332021       0.11204672       0.03149314         0.00000000       0.00000000       0.00000000          1
H        11.86863691      13.09641521       5.56333724         0.00000000       0.00000000       0.00000000          1
H        14.24160505       0.97803734       3.27433051         0.00000000       0.00000000       0.00000000          1
6
pbc=[F, F, F] list_num_par=6 frozen=false iter=179 energy=-0.06501452 Lattice="15.00000000 0.00000000 0.00000000 0.00000000 15.00000000 0.00000000 0.00000000 0.00000000 15.00000000" energy_frozen_part=0.00000000 Properties=species:S:1:pos:R:3:velocities:R:3:Z:I:1
H         4.61841627      11.51773168      14.40383414         0.00000000       0.00000000       0.00000000          1
H         7.66000098       1.36034920       1.04480449         0.00000000       0.00000000       0.00000000          1
H        14.03193554       7.25861546       3.95409165         0.00000000       0.00000000       0.00000000          1
H         6.49431416      11.22760649       6.16491282         0.00000000       0.00000000       0.00000000          1
H        13.76838472       1.52075721      11.56061657         0.00000000       0.00000000       0.00000000          1
H        13.80896599       4.29749156       5.33223963         0.00000000       0.00000000       0.00000000          1
6
pbc=[F, F, F] list_num_par=6 frozen=false iter=189 energy=-0.06934734 Lattice="15.00000000 0.00000000 0.00000000 0.00000000 15.00000000 0.00000000 0.00000000 0.00000000 15.00000000" energy_frozen_part=0.00000000 Properties=species:S:1:pos:R:3:velocities:R:3:Z:I:1
H         9.84898352       2.14847445      13.94230894         0.00000000       0.00000000       0.00000000          1
H         2.28531465       8.48624318       3.58862730         0.00000000       0.00000000       0.00000000          1
H        13.08246374       2.65785072      11.53832190         0.00000000       0.00000000       0.00000000          1
H        10.48601683       9.56700460       9.53823668         0.00000000       0.00000000       0.00000000          1
H         7.75416026       9.42494712       0.16071474         0.00000000       0.00000000       0.00000000          1
H         0.83555519      10.63843591       1.25171716         0.00000000       0.00000000       0.00000000          1
6
pbc=[F, F, F] list_num_par=6 frozen=false iter=199 energy=-0.07685917 Lattice="15.00000000 0.00000000 0.00000000 0.00000000 15.00000000 0.00000000 0.00000000 0.00000000 15.00000000" energy_frozen_part=0.00000000 Properties=species:S:1:pos:R:3:velocities:R:3:Z:I:1
H         3.72293036      11.27825016       7.37073588         0.00000000       0.00000000       0.00000000          1
H        13.43591290      14.36942788      14.32643713         0.00000000       0.00000000       0.00000000          1
H         2.86186774       0.47661408       3.66457671         0.00000000       0.00000000       0.00000000          1
H         4.36813302       8.45539455      14.29685729         0.00000000       0.00000000       0.00000000          1
H        13.04239011       0.35578203      12.70640439         0.00000000       0.00000000       0.00000000          1
H         4.96751474      11.77844547      10.25484810         0.00000000       0.00000000       0.00000000          1
6
pbc=[F, F, F] list_num_par=6 frozen=false iter=209 energy=-0.08277577 Lattice="15.00000000 0.00000000 0.00000000 0.00000000 15.00000000 0.00000000 0.00000000 0.00000000 15.00000000" energy_frozen_part=0.00000000 Properties=species:S:1:pos:R:3:velocities:R:3:Z:I:1
H        11.85723922       5.05054934       6.94492567         0.00000000       0.00000000       0.00000000          1
H         1.88442114       1.95562699       3.98721234         0.00000000       0.00000000       0.00000000          1
H         1.06883591       2.84315554      11.42841397         0.00000000       0.00000000       0.00000000          1
H         2.81006116       5.43154214      11.01892877         0.00000000       0.00000000       0.00000000          1
H         9.96295259       1.12299614      11.46826294         0.00000000       0.00000000       0.00000000          1
H        13.64709250       0.36617855       5.34345406         0.00000000       0.00000000       0.00000000          1
6
pbc=[F, F, F] list_num_par=6 frozen=false iter=219 energy=-0.08868248 Lattice="15.00000000 0.00000000 0.00000000 0.00000000 15.00000000 0.00000000 0.00000000 0.00000000 15.00000000" energy_frozen_part=0.00000000 Properties=species:S:1:pos:R:3:velocities:R:3:Z:I:1
H         6.90629162      12.90307688       0.77200620         0.00000000       0.00000000       0.00000000          1
H        10.33323648       5.17920758       0.57463492         0.00000000       0.00000000       0.00000000          1
H         5.68901624       0.96386114       5.55467934         0.00000000       0.00000000       0.00000000          1
H         8.46507482       7.45876319       1.67756980         0.00000000       0.00000000       0.00000000          1
H         3.37379035       4.97270485       3.61983674         0.00000000       0.00000000       0.00000000          1
H        14.90629777       9.86280145       2.55302816         0.00000000       0.00000000       0.00000000          1
6
pbc=[F, F, F] list_num_par=6 frozen=false iter=229 energy=-0.09169765 Lattice="15.00000000 0.00000000 0.00000000 0.00000000 15.00000000 0.00000000 0.00000000 0.00000000 15.00000000" energy_frozen_part=0.00000000 Properties=species:S:1:pos:R:3:velocities:R:3:Z:I:1
H         3.30631334       7.47909269       6.80975601         0.00000000       0.00000000       0.00000000          1
H        12.61187974       4.40209467       9.37505122         0.00000000       0.00000000       0.00000000          1
H         3.20661338       5.34990665       4.57462242         0.00000000       0.00000000       0.00000000          1
H         8.61271776       7.88343596       7.52149964         0.00000000       0.00000000       0.00000000          1
H         6.84285903       3.76286514      13.03003809         0.00000000       0.00000000       0.00000000          1
H         3.23189037      12.80113771      10.99229676         0.00000000       0.00000000       0.00000000          1
6
pbc=[F, F, F] list_num_par=6 frozen=false iter=239 energy=-0.09403000 Lattice="15.00000000 0.00000000 0.00000000 0.00000000 15.00000000 0.00000000 0.00000000 0.00000000 15.00000000" energy_frozen_part=0.00000000 Properties=species:S:1:pos:R:3:velocities:R:3:Z:I:1
H         3.53487954      14.03855410       3.51958788         0.00000000       0.00000000       0.00000000          1
H         5.52944488      13.08293333      12.18813750         0.00000000       0.00000000       0.00000000          1
H         1.81295694       2.09600961       8.37520324         0.00000000       0.00000000       0.00000000          1
H         3.06335185      14.70674250      11.47850414         0.00000000       0.00000000       0.00000000          1
H         6.71600703       4.66981218      12.44423244         0.00000000       0.00000000       0.00000000          1
H         0.54040630       6.81639020       7.67954767         0.00000000       0.00000000       0.00000000          1
6
pbc=[F, F, F] list_num_par=6 frozen=false iter=249 energy=-0.09974256 Lattice="15.00000000 0.00000000 0.00000000 0.00000000 15.00000000 0.00000000 0.00000000 0.00000000 15.00000000" energy_frozen_part=0.00000000 Properties=species:S:1:pos:R:3:velocities:R:3:Z:I:1
H         3.89023052       6.16317558       3.76071724         0.00000000       0.00000000       0.00000000          1
H         5.10591516       9.88940917       9.91770503         0.00000000       0.00000000       0.00000000          1
H         7.47895566      10.83965765      11.62108827         0.00000000       0.00000000       0.00000000          1
H         4.85186885      14.71521564       2.17774494         0.00000000       0.00000000       0.00000000          1
H         3.83550455      10.27701918       1.19360489         0.00000000       0.00000000       0.00000000          1
H        11.06263517       0.70305077       0.11629204         0.00000000       0.00000000       0.00000000          1
6
pbc=[F, F, F] list_num_par=6 frozen=false iter=259 energy=-0.10231193 Lattice="15.00000000 0.00000000 0.00000000 0.00000000 15.00000000 0.00000000 0.00000000 0.00000000 15.00000000" energy_frozen_part=0.00000000 Properties=species:S:1:pos:R:3:velocities:R:3:Z:I:1
H         8.56201849      12.58542778       5.21858391         0.00000000       0.00000000       0.00000000          1
H        13.69454348       6.91372811      11.41732877         0.00000000       0.00000000       0.00000000          1
H         5.72627493       8.55894311      12.83510158         0.00000000       0.00000000       0.00000000          1
H        11.45722823       6.85822750       6.03687697         0.00000000       0.00000000       0.00000000          1
H        14.85713025       7.27321164       8.59213131         0.00000000       0.00000000       0.00000000          1
H         4.88663039       1.92091045      13.17381575         0.00000000       0.00000000       0.00000000          1
6
pbc=[F, F, F] list_num_par=6 frozen=false iter=269 energy=-0.10621449 Lattice="15.00000000 0.00000000 0.00000000 0.00000000 15.00000000 0.00000000 0.00000000 0.00000000 15.00000000" energy_frozen_part=0.00000000 Properties=species:S:1:pos:R:3:velocities:R:3:Z:I:1
H         6.15945750       5.06521499       8.38928813         0.00000000       0.00000000       0.00000000          1
H         8.81195422       4.03666906       6.19288497         0.00000000       0.00000000       0.00000000          1
H        11.37959082       7.42360716       1.20280316         0.00000000       0.00000000       0.00000000          1
H        12.92702526       8.99119469       4.00639776         0.00000000       0.00000000       0.00000000          1
H         5.24967315       0.22399543       0.24884573         0.00000000       0.00000000       0.00000000          1
H         7.27484752       8.15461419       4.64262128         0.00000000       0.00000000       0.00000000          1
6
pbc=[F, F, F] list_num_par=6 frozen=false iter=279 energy=-0.10863098 Lattice="15.00000000 0.00000000 0.00000000 0.00000000 15.00000000 0.00000000 0.00000000 0.00000000 15.00000000" energy_frozen_part=0.00000000 Properties=species:S:1:pos:R:3:velocities:R:3:Z:I:1
H         5.56442889       3.92881091       6.45409395         0.00000000       0.00000000       0.00000000          1
H         4.40568526       4.94792044       3.18619803         0.00000000       0.00000000       0.00000000          1
H         9.51947776       0.01187316      14.10223846         0.00000000       0.00000000       0.00000000          1
H         5.03972959      13.40674957       1.70295019         0.00000000       0.00000000       0.00000000          1
H        11.48811931       4.85315879       0.92246566         0.00000000       0.00000000       0.00000000          1
H        11.33029650       5.28249825       3.48381131         0.00000000       0.00000000       0.00000000          1
6
pbc=[F, F, F] list_num_par=6 frozen=false iter=289 energy=-0.11354265 Lattice="15.00000000 0.00000000 0.00000000 0.00000000 15.00000000 0.00000000 0.00000000 0.00000000 15.00000000" energy_frozen_part=0.00000000 Properties=species:S:1:pos:R:3:velocities:R:3:Z:I:1
H        12.71076923      14.06312238      14.58095712         0.00000000       0.00000000       0.00000000          1
H         9.54588805       9.00346360       2.39210859         0.00000000       0.00000000       0.00000000          1
H         1.59154949       5.03313598       9.41985583         0.00000000       0.00000000       0.00000000          1
H         0.65742711      11.92805570      13.33471090         0.00000000       0.00000000       0.00000000          1
H         7.22718905       7.53713185       5.07945145         0.00000000       0.00000000       0.00000000          1
H         6.76871867       4.87931108       3.53959157         0.00000000       0.00000000       0.00000000          1
6
pbc=[F, F, F] list_num_par=6 frozen=false iter=299 energy=-0.11712119 Lattice="15.00000000 0.00000000 0.00000000 0.00000000 15.00000000 0.00000000 0.00000000 0.00000000 15.00000000" energy_frozen_part=0.00000000 Properties=species:S:1:pos:R:3:velocities:R:3:Z:I:1
H         1.42424397       8.44586672       3.88568790         0.00000000       0.00000000       0.00000000          1
H         3.18837196       7.08873868      12.41439508         0.00000000       0.00000000       0.00000000          1
H         2.52098143       0.14827590       0.01610087         0.00000000       0.00000000       0.00000000          1
H         4.93720721      12.02492710       4.18092120         0.00000000       0.00000000       0.00000000          1
H         1.14391016       0.91901014       2.34478606         0.00000000       0.00000000       0.00000000          1
H         3.72120028      11.26151861      14.11249095         0.00000000       0.00000000       0.00000000          1
6
pbc=[F, F, F] list_num_par=6 frozen=false iter=309 energy=-0.11916993 Lattice="15.00000000 0.00000000 0.00000000 0.00000000 15.00000000 0.00000000 0.00000000 0.00000000 15.00000000" energy_frozen_part=0.00000000 Properties=species:S:1:pos:R:3:velocities:R:3:Z:I:1
H         5.33087638       5.12397885      14.84468589         0.00000000       0.00000000       0.00000000          1
H         5.60547573      14.71606891       3.03577126         0.00000000       0.00000000       0.00000000          1