6
pbc=[F, F, F] list_num_par=6 frozen=false iter=20000 energy=-1.26974174 Lattice="15.00000000 0.00000000 0.00000000 0.00000000 15.00000000 0.00000000 0.00000000 0.00000000 15.00000000" energy_frozen_part=0.00000000 Properties=species:S:1:pos:R:3:velocities:R:3:Z:I:1
H         6.98920493       1.94693260      11.86193777         0.00000000       0.00000000       0.00000000          1
H         6.96728798       4.69620930      11.36670000         0.00000000       0.00000000       0.00000000          1
H         5.86198629       1.48508672       9.34791290         0.00000000       0.00000000       0.00000000          1
H         5.84005328       4.23435900       8.85266939         0.00000000       0.00000000       0.00000000          1
H         8.22200493       2.96330000       9.57031742         0.00000000       0.00000000       0.00000000          1
H         4.60726277       3.21799893      11.14428914         0.00000000       0.00000000       0.00000000          1
6
pbc=[F, F, F] list_num_par=6 frozen=false iter=20000 energy=-1.26974174 Lattice="15.00000000 0.00000000 0.00000000 0.00000000 15.00000000 0.00000000 0.00000000 0.00000000 15.00000000" energy_frozen_part=0.00000000 Properties=species:S:1:pos:R:3:velocities:R:3:Z:I:1
H         6.98935716       1.94696883      11.86184617         0.00000000       0.00000000       0.00000000          1
H         6.96728595       4.69622846      11.36652127         0.00000000       0.00000000       0.00000000          1
H         5.86219800       1.48497343       9.34781137         0.00000000       0.00000000       0.00000000          1
H         5.84010622       4.23424160       8.85249508         0.00000000       0.00000000       0.00000000          1
H         8.22212112       2.96333494       9.57021247         0.00000000       0.00000000       0.00000000          1
H         4.60734871       3.21787056      11.14412686         0.00000000       0.00000000       0.00000000          1
6
pbc=[F, F, F] list_num_par=6 frozen=false iter=20000 energy=-1.26974174 Lattice="15.00000000 0.00000000 0.00000000 0.00000000 15.00000000 0.00000000 0.00000000 0.00000000 15.00000000" energy_frozen_part=0.00000000 Properties=species:S:1:pos:R:3:velocities:R:3:Z:I:1
H         6.98613778       1.94242364      11.86321542         0.00000000       0.00000000       0.00000000          1
H         6.96541685       4.69230998      11.37131451         0.00000000       0.00000000       0.00000000          1
H         5.85998639       1.48401986       9.34807732         0.00000000       0.00000000       0.00000000          1
H         5.83926007       4.23391144       8.85616741         0.00000000       0.00000000       0.00000000          1
H         8.22040969       2.96114620       9.57343632         0.00000000       0.00000000       0.00000000          1
H         4.60498280       3.21518959      11.14594049         0.00000000       0.00000000       0.00000000          1
6
pbc=[F, F, F] list_num_par=6 frozen=false iter=20000 energy=-1.26974174 Lattice="15.00000000 0.00000000 0.00000000 0.00000000 15.00000000 0.00000000 0.00000000 0.00000000 15.00000000" energy_frozen_part=0.00000000 Properties=species:S:1:pos:R:3:velocities:R:3:Z:I:1
H         6.98931513       1.94683100      11.86186527         0.00000000       0.00000000       0.00000000          1
H         6.96754135       4.69611531      11.36668792         0.00000000       0.00000000       0.00000000          1
H         5.86216276       1.48508232       9.34778145         0.00000000       0.00000000       0.00000000          1
H         5.84039735       4.23437661       8.85260204         0.00000000       0.00000000       0.00000000          1
H         8.22225330       2.96317629       9.57032327         0.00000000       0.00000000       0.00000000          1
H         4.60745829       3.21801622      11.14414121         0.00000000       0.00000000       0.00000000          1
6
pbc=[F, F, F] list_num_par=6 frozen=false iter=20000 energy=-1.26974174 Lattice="15.00000000 0.00000000 0.00000000 0.00000000 15.00000000 0.00000000 0.00000000 0.00000000 15.00000000" energy_frozen_part=0.00000000 Properties=species:S:1:pos:R:3:velocities:R:3:Z:I:1
H         6.98615802       1.94240856      11.86320090         0.00000000       0.00000000       0.00000000          1
H         6.96544219       4.69230263      11.37130341         0.00000000       0.00000000       0.00000000          1
H         5.85998315       1.48402415       9.34805959         0.00000000       0.00000000       0.00000000          1
H         5.83927464       4.23391094       8.85617362         0.00000000       0.00000000       0.00000000          1
H         8.22041876       2.96113309       9.57342531         0.00000000       0.00000000       0.00000000          1
H         4.60501203       3.21518824      11.14594293         0.00000000       0.00000000       0.00000000          1
6
pbc=[F, F, F] list_num_par=6 frozen=false iter=20000 energy=-1.26974174 Lattice="15.00000000 0.00000000 0.00000000 0.00000000 15.00000000 0.00000000 0.00000000 0.00000000 15.00000000" energy_frozen_part=0.00000000 Properties=species:S:1:pos:R:3:velocities:R:3:Z:I:1
H         7.33424986       2.08241082      11.42606725         0.00000000       0.00000000       0.00000000          1
H         6.03407203       4.54712190      11.62364854         0.00000000       0.00000000       0.00000000          1
H         6.00309994       1.57281108       9.02343461         0.00000000       0.00000000       0.00000000          1
H         4.70293000       4.03752367       9.22101301         0.00000000       0.00000000       0.00000000          1
H         7.49200100       3.91723364       9.32539780         0.00000000       0.00000000       0.00000000          1
H         4.54518382       2.20270946      11.32168746         0.00000000       0.00000000       0.00000000          1
6
pbc=[F, F, F] list_num_par=6 frozen=false iter=20000 energy=-1.26974174 Lattice="15.00000000 0.00000000 0.00000000 0.00000000 15.00000000 0.00000000 0.00000000 0.00000000 15.00000000" energy_frozen_part=0.00000000 Properties=species:S:1:pos:R:3:velocities:R:3:Z:I:1
H         6.98919279       1.94696523      11.86197076         0.00000000       0.00000000       0.00000000          1
H         6.96724813       4.69624361      11.36670317         0.00000000       0.00000000       0.00000000          1
H         5.86200828       1.48507746       9.34793381         0.00000000       0.00000000       0.00000000          1
H         5.84006595       4.23435441       8.85266085         0.00000000       0.00000000       0.00000000          1
H         8.22201672       2.96331456       9.57036623         0.00000000       0.00000000       0.00000000          1
H         4.60724836       3.21800218      11.14427795         0.00000000       0.00000000       0.00000000          1
6
pbc=[F, F, F] list_num_par=6 frozen=false iter=20000 energy=-1.26974174 Lattice="15.00000000 0.00000000 0.00000000 0.00000000 15.00000000 0.00000000 0.00000000 0.00000000 15.00000000" energy_frozen_part=0.00000000 Properties=species:S:1:pos:R:3:velocities:R:3:Z:I:1
H         6.98915092       1.94691998      11.86195071         0.00000000       0.00000000       0.00000000          1
H         6.96727294       4.69618921      11.36665698         0.00000000       0.00000000       0.00000000          1
H         5.86190254       1.48504399       9.34793441         0.00000000       0.00000000       0.00000000          1
H         5.84001699       4.23432054       8.85264723         0.00000000       0.00000000       0.00000000          1
H         8.22194276       2.96322999       9.57030436         0.00000000       0.00000000       0.00000000          1
H         4.60722605       3.21801574      11.14429471         0.00000000       0.00000000       0.00000000          1
6
pbc=[F, F, F] list_num_par=6 frozen=false iter=20000 energy=-1.26974174 Lattice="15.00000000 0.00000000 0.00000000 0.00000000 15.00000000 0.00000000 0.00000000 0.00000000 15.00000000" energy_frozen_part=0.00000000 Properties=species:S:1:pos:R:3:velocities:R:3:Z:I:1
H         6.98619278       1.94244998      11.86323233         0.00000000       0.00000000       0.00000000          1
H         6.96546626       4.69231193      11.37121931         0.00000000       0.00000000       0.00000000          1
H         5.85998370       1.48395096       9.34813331         0.00000000       0.00000000       0.00000000          1
H         5.83926255       4.23382136       8.85611953         0.00000000       0.00000000       0.00000000          1
H         8.22042151       2.96107705       9.57339525         0.00000000       0.00000000       0.00000000          1
H         4.60502917       3.21518375      11.14595439         0.00000000       0.00000000       0.00000000          1
6
pbc=[F, F, F] list_num_par=6 frozen=false iter=20000 energy=-1.26974174 Lattice="15.00000000 0.00000000 0.00000000 0.00000000 15.00000000 0.00000000 0.00000000 0.00000000 15.00000000" energy_frozen_part=0.00000000 Properties=species:S:1:pos:R:3:velocities:R:3:Z:I:1
H         6.98905736       1.94709821      11.86180774         0.00000000       0.00000000       0.00000000          1
H         6.96715996       4.69642723      11.36685008         0.00000000       0.00000000       0.00000000          1
H         5.86185425       1.48550775       9.34772530         0.00000000       0.00000000       0.00000000          1
H         5.83996002       4.23483753       8.85276536         0.00000000       0.00000000       0.00000000          1
H         8.22188785       2.96368206       9.57031835         0.00000000       0.00000000       0.00000000          1
H         4.60713628       3.21825121      11.14426320         0.00000000       0.00000000       0.00000000          1
6
pbc=[F, F, F] list_num_par=6 frozen=false iter=20000 energy=-1.26974174 Lattice="15.00000000 0.00000000 0.00000000 0.00000000 15.00000000 0.00000000 0.00000000 0.00000000 15.00000000" energy_frozen_part=0.00000000 Properties=species:S:1:pos:R:3:velocities:R:3:Z:I:1
H         6.98613997       1.94243850      11.86321987         0.00000000       0.00000000       0.00000000          1
H         6.96543784       4.69232452      11.37128761         0.00000000       0.00000000       0.00000000          1
H         5.85999689       1.48402502       9.34807649         0.00000000       0.00000000       0.00000000          1
H         5.83929215       4.23391412       8.85615222         0.00000000       0.00000000       0.00000000          1
H         8.22043211       2.96112378       9.57344544         0.00000000       0.00000000       0.00000000          1
H         4.60499971       3.21521529      11.14592440         0.00000000       0.00000000       0.00000000          1
6
pbc=[F, F, F] list_num_par=6 frozen=false iter=20000 energy=-1.26974174 Lattice="15.00000000 0.00000000 0.00000000 0.00000000 15.00000000 0.00000000 0.00000000 0.00000000 15.00000000" energy_frozen_part=0.00000000 Properties=species:S:1:pos:R:3:velocities:R:3:Z:I:1
H         6.98903856       1.94711377      11.86203708         0.00000000       0.00000000       0.00000000          1
H         6.96686674       4.69631883      11.36639705         0.00000000       0.00000000       0.00000000          1
H         5.86226912       1.48476351       9.34789608         0.00000000       0.00000000       0.00000000          1
H         5.84011861       4.23397214       8.85224227         0.00000000       0.00000000       0.00000000          1
H         8.22208508       2.96328967       9.57047767         0.00000000       0.00000000       0.00000000          1
H         4.60706219       3.21779979      11.14380773         0.00000000       0.00000000       0.00000000          1
6
pbc=[F, F, F] list_num_par=6 frozen=false iter=20000 energy=-1.26974174 Lattice="15.00000000 0.00000000 0.00000000 0.00000000 15.00000000 0.00000000 0.00000000 0.00000000 15.00000000" energy_frozen_part=0.00000000 Properties=species:S:1:pos:R:3:velocities:R:3:Z:I:1
H         6.98905267       1.94710219      11.86181797         0.00000000       0.00000000       0.00000000          1
H         6.96715505       4.69643350      11.36685561         0.00000000       0.00000000       0.00000000          1
H         5.86185333       1.48551386       9.34772482         0.00000000       0.00000000       0.00000000          1
H         5.83996425       4.23484881       8.85275541         0.00000000       0.00000000       0.00000000          1
H         8.22188290       2.96368333       9.57031452         0.00000000       0.00000000       0.00000000          1
H         4.60713166       3.21826298      11.14425362         0.00000000       0.00000000       0.00000000          1
6
pbc=[F, F, F] list_num_par=6 frozen=false iter=20000 energy=-1.26974174 Lattice="15.00000000 0.00000000 0.00000000 0.00000000 15.00000000 0.00000000 0.00000000 0.00000000 15.00000000" energy_frozen_part=0.00000000 Properties=species:S:1:pos:R:3:velocities:R:3:Z:I:1
H         6.98903699       1.94711566      11.86202353         0.00000000       0.00000000       0.00000000          1
H         6.96687967       4.69631655      11.36640090         0.00000000       0.00000000       0.00000000          1
H         5.86227114       1.48477509       9.34787618         0.00000000       0.00000000       0.00000000          1
H         5.84011816       4.23397944       8.85224922         0.00000000       0.00000000       0.00000000          1
H         8.22208786       2.96329584       9.57046913         0.00000000       0.00000000       0.00000000          1
H         4.60706240       3.21780557      11.14380929         0.00000000       0.00000000       0.00000000          1
6
pbc=[F, F, F] list_num_par=6 frozen=false iter=20000 energy=-1.26974174 Lattice="15.00000000 0.00000000 0.00000000 0.00000000 15.00000000 0.00000000 0.00000000 0.00000000 15.00000000" energy_frozen_part=0.00000000 Properties=species:S:1:pos:R:3:velocities:R:3:Z:I:1
H         6.98614425       1.94244359      11.86323765         0.00000000       0.00000000       0.00000000          1
H         6.96543752       4.69232722      11.37131431         0.00000000       0.00000000       0.00000000          1
H         5.85999021       1.48403679       9.34809478         0.00000000       0.00000000       0.00000000          1
H         5.83927096       4.23391727       8.85618678         0.00000000       0.00000000       0.00000000          1
H         8.22041907       2.96114517       9.57345729         0.00000000       0.00000000       0.00000000          1
H         4.60499803       3.21521470      11.14596297         0.00000000       0.00000000       0.00000000          1
6
pbc=[F, F, F] list_num_par=6 frozen=false iter=20000 energy=-1.26974174 Lattice="15.00000000 0.00000000 0.00000000 0.00000000 15.00000000 0.00000000 0.00000000 0.00000000 15.00000000" energy_frozen_part=0.00000000 Properties=species:S:1:pos:R:3:velocities:R:3:Z:I:1
H         6.98902655       1.94710305      11.86181851         0.00000000       0.00000000       0.00000000          1
H         6.96713591       4.69643958      11.36685898         0.00000000       0.00000000       0.00000000          1
H         5.86186358       1.48550949       9.34771221         0.00000000       0.00000000       0.00000000          1
H         5.83997009       4.23484113       8.85275832         0.00000000       0.00000000       0.00000000          1
H         8.22188263       2.96368853       9.57033415         0.00000000       0.00000000       0.00000000          1
H         4.60711428       3.21824977      11.14424092         0.00000000       0.00000000       0.00000000          1
6
pbc=[F, F, F] list_num_par=6 frozen=false iter=20000 energy=-1.26974174 Lattice="15.00000000 0.00000000 0.00000000 0.00000000 15.00000000 0.00000000 0.00000000 0.00000000 15.00000000" energy_frozen_part=0.00000000 Properties=species:S:1:pos:R:3:velocities:R:3:Z:I:1
H         6.98939766       1.94693610      11.86181258         0.00000000       0.00000000       0.00000000          1
H         6.96734678       4.69620592      11.36650788         0.00000000       0.00000000       0.00000000          1
H         5.86212796       1.48496751       9.34781921         0.00000000       0.00000000       0.00000000          1
H         5.84008374       4.23423806       8.85251589         0.00000000       0.00000000       0.00000000          1
H         8.22209305       2.96329033       9.57014821         0.00000000       0.00000000       0.00000000          1
H         4.60739105       3.21788317      11.14418826         0.00000000       0.00000000       0.00000000          1
6
pbc=[F, F, F] list_num_par=6 frozen=false iter=20000 energy=-1.26974174 Lattice="15.00000000 0.00000000 0.00000000 0.00000000 15.00000000 0.00000000 0.00000000 0.00000000 15.00000000" energy_frozen_part=0.00000000 Properties=species:S:1:pos:R:3:velocities:R:3:Z:I:1
H         6.98930100       1.94679223      11.86184050         0.00000000       0.00000000       0.00000000          1
H         6.96755634       4.69608359      11.36668946         0.00000000       0.00000000       0.00000000          1
H         5.86213588       1.48507987       9.34775047         0.00000000       0.00000000       0.00000000          1
H         5.84038801       4.23437985       8.85260865         0.00000000       0.00000000       0.00000000          1
H         8.22222944       2.96315615       9.57029784         0.00000000       0.00000000       0.00000000          1
H         4.60745463       3.21800802      11.14414000         0.00000000       0.00000000       0.00000000          1
6
pbc=[F, F, F] list_num_par=6 frozen=false iter=20000 energy=-1.26974174 Lattice="15.00000000 0.00000000 0.00000000 0.00000000 15.00000000 0.00000000 0.00000000 0.00000000 15.00000000" energy_frozen_part=0.00000000 Properties=species:S:1:pos:R:3:velocities:R:3:Z:I:1
H         6.98614433       1.94243214      11.86322450         0.00000000       0.00000000       0.00000000          1
H         6.96544826       4.69231762      11.37129150         0.00000000       0.00000000       0.00000000          1
H         5.85999927       1.48402441       9.34807362         0.00000000       0.00000000       0.00000000          1
H         5.83930268       4.23391151       8.85615240         0.00000000       0.00000000       0.00000000          1
H         8.22043356       2.96112476       9.57344660         0.00000000       0.00000000       0.00000000          1
H         4.60500529       3.21520779      11.14592640         0.00000000       0.00000000       0.00000000          1
6
pbc=[F, F, F] list_num_par=6 frozen=false iter=20000 energy=-1.26974174 Lattice="15.00000000 0.00000000 0.00000000 0.00000000 15.00000000 0.00000000 0.00000000 0.00000000 15.00000000" energy_frozen_part=0.00000000 Properties=species:S:1:pos:R:3:velocities:R:3:Z:I:1
H         6.98907446       1.94715257      11.86201101         0.00000000       0.00000000       0.00000000          1
H         6.96686987       4.69635452      11.36635233         0.00000000       0.00000000       0.00000000          1
H         5.86231306       1.48477748       9.34787648         0.00000000       0.00000000       0.00000000          1
H         5.84010627       4.23398016       8.85220683         0.00000000       0.00000000       0.00000000          1
H         8.22210127       2.96334289       9.57043751         0.00000000       0.00000000       0.00000000          1
H         4.60708181       3.21779823      11.14378065         0.00000000       0.00000000       0.00000000          1
6
pbc=[F, F, F] list_num_par=6 frozen=false iter=20000 energy=-1.26974174 Lattice="15.00000000 0.00000000 0.00000000 0.00000000 15.00000000 0.00000000 0.00000000 0.00000000 15.00000000" energy_frozen_part=0.00000000 Properties=species:S:1:pos:R:3:velocities:R:3:Z:I:1
H         6.98904730       1.94709872      11.86181105         0.00000000       0.00000000       0.00000000          1
H         6.96716182       4.69642151      11.36683578         0.00000000       0.00000000       0.00000000          1
H         5.86184183       1.48550761       9.34772807         0.00000000       0.00000000       0.00000000          1
H         5.83996258       4.23482856       8.85274625         0.00000000       0.00000000       0.00000000          1
H         8.22188580       2.96366178       9.57030319         0.00000000       0.00000000       0.00000000          1
H         4.60712075       3.21826603      11.14425442         0.00000000       0.00000000       0.00000000          1
6
pbc=[F, F, F] list_num_par=6 frozen=false iter=20000 energy=-1.26974174 Lattice="15.00000000 0.00000000 0.00000000 0.00000000 15.00000000 0.00000000 0.00000000 0.00000000 15.00000000" energy_frozen_part=0.00000000 Properties=species:S:1:pos:R:3:velocities:R:3:Z:I:1
H         7.33273445       2.08318936      11.42596052         0.00000000       0.00000000       0.00000000          1
H         6.03071384       4.54696959      11.62298145         0.00000000       0.00000000       0.00000000          1
H         6.00258504       1.57241782       9.02302782         0.00000000       0.00000000       0.00000000          1
H         4.70056660       4.03619176       9.22005273         0.00000000       0.00000000       0.00000000          1
H         7.48969832       3.91794401       9.32516888         0.00000000       0.00000000       0.00000000          1
H         4.54360919       2.20143491      11.32084969         0.00000000       0.00000000       0.00000000          1
6
pbc=[F, F, F] list_num_par=6 frozen=false iter=20000 energy=-1.26974174 Lattice="15.00000000 0.00000000 0.00000000 0.00000000 15.00000000 0.00000000 0.00000000 0.00000000 15.00000000" energy_frozen_part=0.00000000 Properties=species:S:1:pos:R:3:velocities:R:3:Z:I:1
H         7.33419777       2.08234981      11.42604925         0.00000000       0.00000000       0.00000000          1
H         6.03406360       4.54707447      11.62370588         0.00000000       0.00000000       0.00000000          1
H         6.00309715       1.57288284       9.02336742         0.00000000       0.00000000       0.00000000          1
H         4.70295491       4.03760315       9.22102506         0.00000000       0.00000000       0.00000000          1
H         7.49203009       3.91726597       9.32545333         0.00000000       0.00000000       0.00000000          1
H         4.54513399       2.20270004      11.32162199         0.00000000       0.00000000       0.00000000          1
6
pbc=[F, F, F] list_num_par=6 frozen=false iter=20000 energy=-1.26974174 Lattice="15.00000000 0.00000000 0.00000000 0.00000000 15.00000000 0.00000000 0.00000000 0.00000000 15.00000000" energy_frozen_part=0.00000000 Properties=species:S:1:pos:R:3:velocities:R:3:Z:I:1
H         6.98614659       1.94243516      11.86320766         0.00000000       0.00000000       0.00000000          1
H         6.96544680       4.69231993      11.37126986         0.00000000       0.00000000       0.00000000          1
H         5.85999260       1.48402054       9.34807674         0.00000000       0.00000000       0.00000000          1
H         5.83927752       4.23390146       8.85613790         0.00000000       0.00000000       0.00000000          1
H         8.22042936       2.96112536       9.57342129         0.00000000       0.00000000       0.00000000          1
H         4.60501227       3.21521243      11.14593092         0.00000000       0.00000000       0.00000000          1
6
pbc=[F, F, F] list_num_par=6 frozen=false iter=20000 energy=-1.26974174 Lattice="15.00000000 0.00000000 0.00000000 0.00000000 15.00000000 0.00000000 0.00000000 0.00000000 15.00000000" energy_frozen_part=0.00000000 Properties=species:S:1:pos:R:3:velocities:R:3:Z:I:1
H         6.98935538       1.94697064      11.86184899         0.00000000       0.00000000       0.00000000          1
H         6.96727433       4.69622635      11.36653268         0.00000000       0.00000000       0.00000000          1
H         5.86219473       1.48497384       9.34781122         0.00000000       0.00000000       0.00000000          1
H         5.84010781       4.23424308       8.85250233         0.00000000       0.00000000       0.00000000          1
H         8.22212392       2.96333884       9.57021713         0.00000000       0.00000000       0.00000000          1
H         4.60734264       3.21786004      11.14412302         0.00000000       0.00000000       0.00000000          1
6
pbc=[F, F, F] list_num_par=6 frozen=false iter=20000 energy=-1.26974174 Lattice="15.00000000 0.00000000 0.00000000 0.00000000 15.00000000 0.00000000 0.00000000 0.00000000 15.00000000" energy_frozen_part=0.00000000 Properties=species:S:1:pos:R:3:velocities:R:3:Z:I:1
H         6.98930063       1.94681324      11.86185505         0.00000000       0.00000000       0.00000000          1
H         6.96754761       4.69610206      11.36669353         0.00000000       0.00000000       0.00000000          1
H         5.86214111       1.48508227       9.34777467         0.00000000       0.00000000       0.00000000          1
H         5.84038516       4.23437783       8.85260380         0.00000000       0.00000000       0.00000000          1
H         8.22222969       2.96316504       9.57031432         0.00000000       0.00000000       0.00000000          1
H         4.60745048       3.21802567      11.14414698         0.00000000       0.00000000       0.00000000          1
6
pbc=[F, F, F] list_num_par=6 frozen=false iter=20000 energy=-1.26974174 Lattice="15.00000000 0.00000000 0.00000000 0.00000000 15.00000000 0.00000000 0.00000000 0.00000000 15.00000000" energy_frozen_part=0.00000000 Properties=species:S:1:pos:R:3:velocities:R:3:Z:I:1
H         6.98617356       1.94241071      11.86320832         0.00000000       0.00000000       0.00000000          1
H         6.96545448       4.69230305      11.37129403         0.00000000       0.00000000       0.00000000          1
H         5.86001052       1.48400758       9.34807035         0.00000000       0.00000000       0.00000000          1
H         5.83929100       4.23389351       8.85616641         0.00000000       0.00000000       0.00000000          1
H         8.22044192       2.96112031       9.57342575         0.00000000       0.00000000       0.00000000          1
H         4.60502570       3.21518332      11.14595139         0.00000000       0.00000000       0.00000000          1
6
pbc=[F, F, F] list_num_par=6 frozen=false iter=20000 energy=-1.26974174 Lattice="15.00000000 0.00000000 0.00000000 0.00000000 15.00000000 0.00000000 0.00000000 0.00000000 15.00000000" energy_frozen_part=0.00000000 Properties=species:S:1:pos:R:3:velocities:R:3:Z:I:1
H         6.98904650       1.94709139      11.86181449         0.00000000       0.00000000       0.00000000          1
H         6.96717046       4.69641860      11.36685443         0.00000000       0.00000000       0.00000000          1
H         5.86185604       1.48551018       9.34771692         0.00000000       0.00000000       0.00000000          1
H         5.83997046       4.23484005       8.85275334         0.00000000       0.00000000       0.00000000          1
H         8.22188785       2.96367400       9.57032326         0.00000000       0.00000000       0.00000000          1
H         4.60713010       3.21826015      11.14425084         0.00000000       0.00000000       0.00000000          1
6
pbc=[F, F, F] list_num_par=6 frozen=false iter=20000 energy=-1.26974174 Lattice="15.00000000 0.00000000 0.00000000 0.00000000 15.00000000 0.00000000 0.00000000 0.00000000 15.00000000" energy_frozen_part=0.00000000 Properties=species:S:1:pos:R:3:velocities:R:3:Z:I:1
H         6.98935215       1.94696370      11.86185776         0.00000000       0.00000000       0.00000000          1
H         6.96727421       4.69623016      11.36653356         0.00000000       0.00000000       0.00000000          1
H         5.86218039       1.48497551       9.34782475         0.00000000       0.00000000       0.00000000          1
H         5.84010771       4.23424478       8.85250301         0.00000000       0.00000000       0.00000000          1
H         8.22210758       2.96333464       9.57022687         0.00000000       0.00000000       0.00000000          1
H         4.60734586       3.21787376      11.14414227         0.00000000       0.00000000       0.00000000          1
6
pbc=[F, F, F] list_num_par=6 frozen=false iter=20000 energy=-1.26974174 Lattice="15.00000000 0.00000000 0.00000000 0.00000000 15.00000000 0.00000000 0.00000000 0.00000000 15.00000000" energy_frozen_part=0.00000000 Properties=species:S:1:pos:R:3:velocities:R:3:Z:I:1
H         6.98902000       1.94712729      11.86184834         0.00000000       0.00000000       0.00000000          1
H         6.96715257       4.69645150      11.36683505         0.00000000       0.00000000       0.00000000          1
H         5.86184549       1.48550308       9.34776653         0.00000000       0.00000000       0.00000000          1
H         5.83997925       4.23482358       8.85274194         0.00000000       0.00000000       0.00000000          1
H         8.22188349       2.96365889       9.57034302         0.00000000       0.00000000       0.00000000          1
H         4.60710878       3.21829784      11.14424843         0.00000000       0.00000000       0.00000000          1
6
pbc=[F, F, F] list_num_par=6 frozen=false iter=20000 energy=-1.26974174 Lattice="15.00000000 0.00000000 0.00000000 0.00000000 15.00000000 0.00000000 0.00000000 0.00000000 15.00000000" energy_frozen_part=0.00000000 Properties=species:S:1:pos:R:3:velocities:R:3:Z:I:1
H         6.98932793       1.94691575      11.86181923         0.00000000       0.00000000       0.00000000          1
H         6.96729350       4.69618695      11.36657454         0.00000000       0.00000000       0.00000000          1