6
pbc=[F, F, F] list_num_par=6 frozen=false iter=9 energy=10.53010013 Lattice="15.00000000 0.00000000 0.00000000 0.00000000 15.00000000 0.00000000 0.00000000 0.00000000 15.00000000" energy_frozen_part=0.00000000 Properties=species:S:1:pos:R:3:velocities:R:3:Z:I:1
H        13.18647842       1.89942329      10.67618896         0.00000000       0.00000000       0.00000000          1
H         1.99263163       7.06410899      13.68441535         0.00000000       0.00000000       0.00000000          1
H         9.69181559      14.77868383       1.52133272         0.00000000       0.00000000       0.00000000          1
H        12.88538669       4.64972757       8.51613466         0.00000000       0.00000000       0.00000000          1
H         5.92954934      14.71845298       8.91398220         0.00000000       0.00000000       0.00000000          1
H         2.81529422       8.69924550      13.29030495         0.00000000       0.00000000       0.00000000          1
6
pbc=[F, F, F] list_num_par=6 frozen=false iter=19 energy=0.50394526 Lattice="15.00000000 0.00000000 0.00000000 0.00000000 15.00000000 0.00000000 0.00000000 0.00000000 15.00000000" energy_frozen_part=0.00000000 Properties=species:S:1:pos:R:3:velocities:R:3:Z:I:1
H         6.83034887       7.41701121      11.91359587         0.00000000       0.00000000       0.00000000          1
H         6.59979100       6.41865113       9.91872299         0.00000000       0.00000000       0.00000000          1
H         8.28647664       6.19198232       6.53793309         0.00000000       0.00000000       0.00000000          1
H         9.23275653       9.31201882       8.30173635         0.00000000       0.00000000       0.00000000          1
H         8.30171589      12.07457668       7.93678393         0.00000000       0.00000000       0.00000000          1
H        12.18939500      13.54218474      10.38651271         0.00000000       0.00000000       0.00000000          1
6
pbc=[F, F, F] list_num_par=6 frozen=false iter=29 energy=-0.00225018 Lattice="15.00000000 0.00000000 0.00000000 0.00000000 15.00000000 0.00000000 0.00000000 0.00000000 15.00000000" energy_frozen_part=0.00000000 Properties=species:S:1:pos:R:3:velocities:R:3:Z:I:1
H         9.32139985      12.46754082       3.62662658         0.00000000       0.00000000       0.00000000          1
H         3.69999396       4.48108485      10.78185758         0.00000000       0.00000000       0.00000000          1
H        11.19780742       5.39992400       4.30775532         0.00000000       0.00000000       0.00000000          1
H         8.49586669       1.53968770      14.82736145         0.00000000       0.00000000       0.00000000          1
H         0.16443256      10.85658504      13.78256351         0.00000000       0.00000000       0.00000000          1
H        12.06032495       9.57352912      10.74065498         0.00000000       0.00000000       0.00000000          1
6
pbc=[F, F, F] list_num_par=6 frozen=false iter=39 energy=-0.00484539 Lattice="15.00000000 0.00000000 0.00000000 0.00000000 15.00000000 0.00000000 0.00000000 0.00000000 15.00000000" energy_frozen_part=0.00000000 Properties=species:S:1:pos:R:3:velocities:R:3:Z:I:1
H         0.63654792       9.99348301       0.22683568         0.00000000       0.00000000       0.00000000          1
H        10.95547505       6.16610871       4.49528797         0.00000000       0.00000000       0.00000000          1
H         9.94539101      12.87536714       3.05383900         0.00000000       0.00000000       0.00000000          1
H        14.50974386       7.64508189      12.64992431         0.00000000       0.00000000       0.00000000          1
H         6.70086290       6.55569545       8.44100767         0.00000000       0.00000000       0.00000000          1
H        14.07510720      13.97037016       8.24489707         0.00000000       0.00000000       0.00000000          1
6
pbc=[F, F, F] list_num_par=6 frozen=false iter=49 energy=-0.00958722 Lattice="15.00000000 0.00000000 0.00000000 0.00000000 15.00000000 0.00000000 0.00000000 0.00000000 15.00000000" energy_frozen_part=0.00000000 Properties=species:S:1:pos:R:3:velocities:R:3:Z:I:1
H         4.96831767       5.76710318       1.79745740         0.00000000       0.00000000       0.00000000          1
H         2.51065185       1.37296816       4.25647017         0.00000000       0.00000000       0.00000000          1
H         7.19848371       0.87770564      10.99897004         0.00000000       0.00000000       0.00000000          1
H         1.65887952       7.47292502       5.57086118         0.00000000       0.00000000       0.00000000          1
H         5.88498348       7.96170237      13.05106553         0.00000000       0.00000000       0.00000000          1
H         9.14680255      13.88090008       5.26251905         0.00000000       0.00000000       0.00000000          1
6
pbc=[F, F, F] list_num_par=6 frozen=false iter=59 energy=-0.01384275 Lattice="15.00000000 0.00000000 0.00000000 0.00000000 15.00000000 0.00000000 0.00000000 0.00000000 15.00000000" energy_frozen_part=0.00000000 Properties=species:S:1:pos:R:3:velocities:R:3:Z:I:1
H         0.50799029       3.83114009       2.15916618         0.00000000       0.00000000       0.00000000          1
H        14.22806993       9.69216719      10.51818651         0.00000000       0.00000000       0.00000000          1
H         8.27936964       1.74330750       5.77616324         0.00000000       0.00000000       0.00000000          1
H        13.19220517       0.48975312       2.37372794         0.00000000       0.00000000       0.00000000          1
H        11.72339953       8.70253081       0.23693313         0.00000000       0.00000000       0.00000000          1
H        14.77115218       5.34333105       2.30754211         0.00000000       0.00000000       0.00000000          1
6
pbc=[F, F, F] list_num_par=6 frozen=false iter=69 energy=-0.01617351 Lattice="15.00000000 0.00000000 0.00000000 0.00000000 15.00000000 0.00000000 0.00000000 0.00000000 15.00000000" energy_frozen_part=0.00000000 Properties=species:S:1:pos:R:3:velocities:R:3:Z:I:1
H         3.13536450      13.23043119       9.95935589         0.00000000       0.00000000       0.00000000          1
H         5.94715385       8.73313041      14.22121935         0.00000000       0.00000000       0.00000000          1
H        13.92409255       2.74968731      13.19119331         0.00000000       0.00000000       0.00000000          1
H        13.08241456       1.48870258       7.80290037         0.00000000       0.00000000       0.00000000          1
H         1.27823928      13.65661137      14.33855556         0.00000000       0.00000000       0.00000000          1
H         7.39339035       9.38490573       8.09709742         0.00000000       0.00000000       0.00000000          1
6
pbc=[F, F, F] list_num_par=6 frozen=false iter=79 energy=-0.01882532 Lattice="15.00000000 0.00000000 0.00000000 0.00000000 15.00000000 0.00000000 0.00000000 0.00000000 15.00000000" energy_frozen_part=0.00000000 Properties=species:S:1:pos:R:3:velocities:R:3:Z:I:1
H         7.27906184       4.78246703      10.16760065         0.00000000       0.00000000       0.00000000          1
H         9.15557912       9.40482909       5.96549330         0.00000000       0.00000000       0.00000000          1
H         6.58782133       3.51419003       4.61158748         0.00000000       0.00000000       0.00000000          1
H        14.00872839       5.80991433      13.02938230         0.00000000       0.00000000       0.00000000          1
H        13.08707648       8.86378612       8.40454720         0.00000000       0.00000000       0.00000000          1
H         4.17634913      13.81968695       9.03396673         0.00000000       0.00000000       0.00000000          1
6
pbc=[F, F, F] list_num_par=6 frozen=false iter=89 energy=-0.02278351 Lattice="15.00000000 0.00000000 0.00000000 0.00000000 15.00000000 0.00000000 0.00000000 0.00000000 15.00000000" energy_frozen_part=0.00000000 Properties=species:S:1:pos:R:3:velocities:R:3:Z:I:1
H         2.10236841      14.94196827       7.05243276         0.00000000       0.00000000       0.00000000          1
H         9.17138666       5.02626220       0.56888728         0.00000000       0.00000000       0.00000000          1
H         5.19096942       2.40591209      10.53370135         0.00000000       0.00000000       0.00000000          1
H         5.64760672       5.73763669       8.27927038         0.00000000       0.00000000       0.00000000          1
H        11.65923357       4.25487454      13.68155140         0.00000000       0.00000000       0.00000000          1
H         2.15540883      10.32657672       1.95064246         0.00000000       0.00000000       0.00000000          1
6
pbc=[F, F, F] list_num_par=6 frozen=false iter=99 energy=-0.02693429 Lattice="15.00000000 0.00000000 0.00000000 0.00000000 15.00000000 0.00000000 0.00000000 0.00000000 15.00000000" energy_frozen_part=0.00000000 Properties=species:S:1:pos:R:3:velocities:R:3:Z:I:1
H        14.12061200      11.55964157       0.28048053         0.00000000       0.00000000       0.00000000          1
H         6.40886587      10.76945809       7.20485102         0.00000000       0.00000000       0.00000000          1
H         1.30614489      10.96178469      10.85398448         0.00000000       0.00000000       0.00000000          1
H         5.39515299       0.92779931       7.97722696         0.00000000       0.00000000       0.00000000          1
H        12.70656239       4.79295163      11.69378778         0.00000000       0.00000000       0.00000000          1
H         2.43413453       9.37047335       6.64726239         0.00000000       0.00000000       0.00000000          1
6
pbc=[F, F, F] list_num_par=6 frozen=false iter=109 energy=-0.03156478 Lattice="15.00000000 0.00000000 0.00000000 0.00000000 15.00000000 0.00000000 0.00000000 0.00000000 15.00000000" energy_frozen_part=0.00000000 Properties=species:S:1:pos:R:3:velocities:R:3:Z:I:1
H         9.51010325       9.32808916       5.53212265         0.00000000       0.00000000       0.00000000          1
H         6.79768771      14.32511478       0.89475177         0.00000000       0.00000000       0.00000000          1
H         6.08378359       9.58889720       7.81747741         0.00000000       0.00000000       0.00000000          1
H        12.58816129       2.57854493       5.93635118         0.00000000       0.00000000       0.00000000          1
H         3.35408604       2.05044751      14.10956737         0.00000000       0.00000000       0.00000000          1
H         7.69323859       0.99265231      14.42031772         0.00000000       0.00000000       0.00000000          1
6
pbc=[F, F, F] list_num_par=6 frozen=false iter=119 energy=-0.04222719 Lattice="15.00000000 0.00000000 0.00000000 0.00000000 15.00000000 0.00000000 0.00000000 0.00000000 15.00000000" energy_frozen_part=0.00000000 Properties=species:S:1:pos:R:3:velocities:R:3:Z:I:1
H        11.19794305      12.88836600       6.05356092         0.00000000       0.00000000       0.00000000          1
H        11.21110343       3.88038587       0.49468984         0.00000000       0.00000000       0.00000000          1
H        11.27731090       5.65241289      10.10560401         0.00000000       0.00000000       0.00000000          1
H         2.89477000       0.16511191      11.33701361         0.00000000       0.00000000       0.00000000          1
H        11.44117168       1.27838247       3.38879055         0.00000000       0.00000000       0.00000000          1
H         4.76973502       4.00134224      10.97131648         0.00000000       0.00000000       0.00000000          1
6
pbc=[F, F, F] list_num_par=6 frozen=false iter=129 energy=-0.04743486 Lattice="15.00000000 0.00000000 0.00000000 0.00000000 15.00000000 0.00000000 0.00000000 0.00000000 15.00000000" energy_frozen_part=0.00000000 Properties=species:S:1:pos:R:3:velocities:R:3:Z:I:1
H        14.22954268       2.92186080       2.57038439         0.00000000       0.00000000       0.00000000          1
H        12.93469102       9.90705302      13.49116933         0.00000000       0.00000000       0.00000000          1
H         6.60998103       2.55140056       6.97029733         0.00000000       0.00000000       0.00000000          1
H         3.46015901       1.00015623       5.84187805         0.00000000       0.00000000       0.00000000          1
H        14.99658825      10.47321224       0.33854930         0.00000000       0.00000000       0.00000000          1
H         6.98347356       5.73381266      10.13606055         0.00000000       0.00000000       0.00000000          1
6
pbc=[F, F, F] list_num_par=6 frozen=false iter=139 energy=-0.05199763 Lattice="15.00000000 0.00000000 0.00000000 0.00000000 15.00000000 0.00000000 0.00000000 0.00000000 15.00000000" energy_frozen_part=0.00000000 Properties=species:S:1:pos:R:3:velocities:R:3:Z:I:1
H         9.43719708       5.95324670       3.45150829         0.00000000       0.00000000       0.00000000          1
H         0.16755464      14.08950452      10.18100623         0.00000000       0.00000000       0.00000000          1
H        11.95043814      12.61199514       3.07282495         0.00000000       0.00000000       0.00000000          1
H        14.42979579       1.94309913       8.38022657         0.00000000       0.00000000       0.00000000          1
H         7.44756657       7.13719373       0.83427241         0.00000000       0.00000000       0.00000000          1
H         7.89027845       0.87523082       4.93892534         0.00000000       0.00000000       0.00000000          1
6
pbc=[F, F, F] list_num_par=6 frozen=false iter=149 energy=-0.05830174 Lattice="15.00000000 0.00000000 0.00000000 0.00000000 15.00000000 0.00000000 0.00000000 0.00000000 15.00000000" energy_frozen_part=0.00000000 Properties=species:S:1:pos:R:3:velocities:R:3:Z:I:1
H         1.96917897       0.11113734       4.94804578         0.00000000       0.00000000       0.00000000          1
H        10.40960860       2.59012810       8.52946403         0.00000000       0.00000000       0.00000000          1
H         6.00360633      13.53104283       3.28901444         0.00000000       0.00000000       0.00000000          1
H         7.04423909      11.78964196      10.45586790         0.00000000       0.00000000       0.00000000          1
H        12.40284723      13.78523510      10.65701137         0.00000000       0.00000000       0.00000000          1
H         4.65430387      12.71548183       6.39124338         0.00000000       0.00000000       0.00000000          1
6
pbc=[F, F, F] list_num_par=6 frozen=false iter=159 energy=-0.06577612 Lattice="15.00000000 0.00000000 0.00000000 0.00000000 15.00000000 0.00000000 0.00000000 0.00000000 15.00000000" energy_frozen_part=0.00000000 Properties=species:S:1:pos:R:3:velocities:R:3:Z:I:1
H        11.19764259       1.05603168      13.06707877         0.00000000       0.00000000       0.00000000          1
H        12.24263551       3.50239884       6.88903257         0.00000000       0.00000000       0.00000000          1
H         9.07750483       3.52826225       7.78030311         0.00000000       0.00000000       0.00000000          1
H         4.20401015       1.40201608       0.76962232         0.00000000       0.00000000       0.00000000          1
H         9.70010646      11.63965771      13.31586407         0.00000000       0.00000000       0.00000000          1
H        10.09902826       7.04736904       0.50576625         0.00000000       0.00000000       0.00000000          1
6
pbc=[F, F, F] list_num_par=6 frozen=false iter=169 energy=-0.07166807 Lattice="15.00000000 0.00000000 0.00000000 0.00000000 15.00000000 0.00000000 0.00000000 0.00000000 15.00000000" energy_frozen_part=0.00000000 Properties=species:S:1:pos:R:3:velocities:R:3:Z:I:1
H         7.94396599       7.60471961       4.89038255         0.00000000       0.00000000       0.00000000          1
H         4.13542940       7.98741334      13.74409413         0.00000000       0.00000000       0.00000000          1
H         3.70756930      13.05809245       9.55935159         0.00000000       0.00000000       0.00000000          1
H         6.36687866      14.71943956       8.29620131         0.00000000       0.00000000       0.00000000          1
H         3.66081741       0.52380154       0.10091825         0.00000000       0.00000000       0.00000000          1
H         6.96648801       4.14095115       2.17284767         0.00000000       0.00000000       0.00000000          1
6
pbc=[F, F, F] list_num_par=6 frozen=false iter=179 energy=-0.07835950 Lattice="15.00000000 0.00000000 0.00000000 0.00000000 15.00000000 0.00000000 0.00000000 0.00000000 15.00000000" energy_frozen_part=0.00000000 Properties=species:S:1:pos:R:3:velocities:R:3:Z:I:1
H         4.80357529       9.75896882      11.04329040         0.00000000       0.00000000       0.00000000          1
H         5.04184732      14.52327415       3.34472777         0.00000000       0.00000000       0.00000000          1
H        13.86686466       3.26923467       7.43652863         0.00000000       0.00000000       0.00000000          1
H         6.10663835       0.85391240       9.73313180         0.00000000       0.00000000       0.00000000          1
H         7.82670417       2.82899792       7.95004512         0.00000000       0.00000000       0.00000000          1
H         8.93061195      10.23564447      14.89246993         0.00000000       0.00000000       0.00000000          1
6
pbc=[F, F, F] list_num_par=6 frozen=false iter=189 energy=-0.08623397 Lattice="15.00000000 0.00000000 0.00000000 0.00000000 15.00000000 0.00000000 0.00000000 0.00000000 15.00000000" energy_frozen_part=0.00000000 Properties=species:S:1:pos:R:3:velocities:R:3:Z:I:1
H         6.76096523       2.65545391      10.32623018         0.00000000       0.00000000       0.00000000          1
H         6.92046852       6.05320427      13.67094870         0.00000000       0.00000000       0.00000000          1
H         9.47654240       2.71021832       8.71470642         0.00000000       0.00000000       0.00000000          1
H         1.25363875       7.41234094       3.42229273         0.00000000       0.00000000       0.00000000          1
H        14.12228275       5.56474238      13.58097488         0.00000000       0.00000000       0.00000000          1
H         5.95102176      10.79991927       1.25385540         0.00000000       0.00000000       0.00000000          1
6
pbc=[F, F, F] list_num_par=6 frozen=false iter=199 energy=-0.09199953 Lattice="15.00000000 0.00000000 0.00000000 0.00000000 15.00000000 0.00000000 0.00000000 0.00000000 15.00000000" energy_frozen_part=0.00000000 Properties=species:S:1:pos:R:3:velocities:R:3:Z:I:1
H         4.77951624      13.60292591       5.06498989         0.00000000       0.00000000       0.00000000          1
H        14.57076764       6.63198237       3.81139633         0.00000000       0.00000000       0.00000000          1
H         5.32554857      11.30069618       9.59001131         0.00000000       0.00000000       0.00000000          1
H         2.99488001       0.46577963       0.22419707         0.00000000       0.00000000       0.00000000          1
H         7.98637205       3.39595451      13.04025531         0.00000000       0.00000000       0.00000000          1
H         2.40583902      12.55202194       3.49122405         0.00000000       0.00000000       0.00000000          1
6
pbc=[F, F, F] list_num_par=6 frozen=false iter=209 energy=-0.09525335 Lattice="15.00000000 0.00000000 0.00000000 0.00000000 15.00000000 0.00000000 0.00000000 0.00000000 15.00000000" energy_frozen_part=0.00000000 Properties=species:S:1:pos:R:3:velocities:R:3:Z:I:1
H         6.48043993       9.36710553      10.85442214         0.00000000       0.00000000       0.00000000          1
H         9.30395766       8.05928058      10.60730363         0.00000000       0.00000000       0.00000000          1
H        12.79780269       9.61736133       7.66842756         0.00000000       0.00000000       0.00000000          1
H         6.84072252       3.90193845       7.86096665         0.00000000       0.00000000       0.00000000          1
H        13.08294543      14.88149713      10.33620621         0.00000000       0.00000000       0.00000000          1
H        12.25378290       2.95671284       4.43698709         0.00000000       0.00000000       0.00000000          1
6
pbc=[F, F, F] list_num_par=6 frozen=false iter=219 energy=-0.09780239 Lattice="15.00000000 0.00000000 0.00000000 0.00000000 15.00000000 0.00000000 0.00000000 0.00000000 15.00000000" energy_frozen_part=0.00000000 Properties=species:S:1:pos:R:3:velocities:R:3:Z:I:1
H         6.17061977       6.40803972       6.01034925         0.00000000       0.00000000       0.00000000          1
H         4.37361963      12.74673819       6.61949236         0.00000000       0.00000000       0.00000000          1
H        13.78239409      11.31364533      13.40155198         0.00000000       0.00000000       0.00000000          1
H        14.85071215       4.44601405       2.00885299         0.00000000       0.00000000       0.00000000          1
H        10.54803381       8.57257036       8.80931136         0.00000000       0.00000000       0.00000000          1
H        12.60674920       2.55490192       1.55858786         0.00000000       0.00000000       0.00000000          1
6
pbc=[F, F, F] list_num_par=6 frozen=false iter=229 energy=-0.10007570 Lattice="15.00000000 0.00000000 0.00000000 0.00000000 15.00000000 0.00000000 0.00000000 0.00000000 15.00000000" energy_frozen_part=0.00000000 Properties=species:S:1:pos:R:3:velocities:R:3:Z:I:1
H        14.92296915       6.59377372       0.27498625         0.00000000       0.00000000       0.00000000          1
H         3.33786729      12.43961840       4.32585366         0.00000000       0.00000000       0.00000000          1
H        11.18835034       9.95202581       5.52564642         0.00000000       0.00000000       0.00000000          1
H         7.95553954       0.17227032      14.89503370         0.00000000       0.00000000       0.00000000          1
H         1.10473600       1.30240166       5.34051677         0.00000000       0.00000000       0.00000000          1
H         9.02294382       0.09111360      12.26050735         0.00000000       0.00000000       0.00000000          1
6
pbc=[F, F, F] list_num_par=6 frozen=false iter=239 energy=-0.10332899 Lattice="15.00000000 0.00000000 0.00000000 0.00000000 15.00000000 0.00000000 0.00000000 0.00000000 15.00000000" energy_frozen_part=0.00000000 Properties=species:S:1:pos:R:3:velocities:R:3:Z:I:1
H        12.81049781      10.77629223       9.61401739         0.00000000       0.00000000       0.00000000          1
H         9.14748704      14.84759981      10.03724174         0.00000000       0.00000000       0.00000000          1
H         3.93775069      12.55295571       2.09219088         0.00000000       0.00000000       0.00000000          1
H        13.09828824      12.90222462       0.70335664         0.00000000       0.00000000       0.00000000          1
H        10.17368232       1.55403169       6.95955700         0.00000000       0.00000000       0.00000000          1
H         3.37202355      14.57529649       3.99502132         0.00000000       0.00000000       0.00000000          1
6
pbc=[F, F, F] list_num_par=6 frozen=false iter=249 energy=-0.10553749 Lattice="15.00000000 0.00000000 0.00000000 0.00000000 15.00000000 0.00000000 0.00000000 0.00000000 15.00000000" energy_frozen_part=0.00000000 Properties=species:S:1:pos:R:3:velocities:R:3:Z:I:1
H        14.94362059       2.60204694      12.15892748         0.00000000       0.00000000       0.00000000          1
H        14.54904415       7.74348606      10.26091652         0.00000000       0.00000000       0.00000000          1
H         6.86847693       3.61702727      10.54484567         0.00000000       0.00000000       0.00000000          1
H         9.09803211       3.40503696      12.63246662         0.00000000       0.00000000       0.00000000          1
H         5.97875104       0.83075068       7.38584174         0.00000000       0.00000000       0.00000000          1
H         5.79952274      12.56336012      11.54486918         0.00000000       0.00000000       0.00000000          1
6
pbc=[F, F, F] list_num_par=6 frozen=false iter=259 energy=-0.10882217 Lattice="15.00000000 0.00000000 0.00000000 0.00000000 15.00000000 0.00000000 0.00000000 0.00000000 15.00000000" energy_frozen_part=0.00000000 Properties=species:S:1:pos:R:3:velocities:R:3:Z:I:1
H         8.48305368       8.00270696       6.20663180         0.00000000       0.00000000       0.00000000          1
H         1.95139879       9.72531332       6.97003604         0.00000000       0.00000000       0.00000000          1
H         5.13744476      14.51756366      10.79413720         0.00000000       0.00000000       0.00000000          1
H         9.77794932       5.56763951       6.77536043         0.00000000       0.00000000       0.00000000          1
H         5.47919078       4.32849271       0.07124058         0.00000000       0.00000000       0.00000000          1
H         8.91176945       0.62601255       6.02729709         0.00000000       0.00000000       0.00000000          1
6
pbc=[F, F, F] list_num_par=6 frozen=false iter=269 energy=-0.11123895 Lattice="15.00000000 0.00000000 0.00000000 0.00000000 15.00000000 0.00000000 0.00000000 0.00000000 15.00000000" energy_frozen_part=0.00000000 Properties=species:S:1:pos:R:3:velocities:R:3:Z:I:1
H        12.37800520      12.41532680       4.27231735         0.00000000       0.00000000       0.00000000          1
H         0.65739267      13.32136707       8.86796365         0.00000000       0.00000000       0.00000000          1
H         2.63416591      13.10559418       0.56692305         0.00000000       0.00000000       0.00000000          1
H        12.68901414       7.27480841       7.41452688         0.00000000       0.00000000       0.00000000          1
H         6.45361856       8.02739469      12.38542310         0.00000000       0.00000000       0.00000000          1
H        12.74186795      10.66592461       7.12487642         0.00000000       0.00000000       0.00000000          1
6
pbc=[F, F, F] list_num_par=6 frozen=false iter=279 energy=-0.11414465 Lattice="15.00000000 0.00000000 0.00000000 0.00000000 15.00000000 0.00000000 0.00000000 0.00000000 15.00000000" energy_frozen_part=0.00000000 Properties=species:S:1:pos:R:3:velocities:R:3:Z:I:1
H         7.25750533      11.58626794       0.85135731         0.00000000       0.00000000       0.00000000          1
H         7.01798213       0.09589938       4.34980681         0.00000000       0.00000000       0.00000000          1
H         1.09158574       0.33121732       2.07295712         0.00000000       0.00000000       0.00000000          1
H         3.32118768       2.96371694       0.54346147         0.00000000       0.00000000       0.00000000          1
H         2.15407861       4.10678656       9.65403013         0.00000000       0.00000000       0.00000000          1
H         4.41963710      12.39287544       1.80915796         0.00000000       0.00000000       0.00000000          1
6
pbc=[F, F, F] list_num_par=6 frozen=false iter=289 energy=-0.11668976 Lattice="15.00000000 0.00000000 0.00000000 0.00000000 15.00000000 0.00000000 0.00000000 0.00000000 15.00000000" energy_frozen_part=0.00000000 Properties=species:S:1:pos:R:3:velocities:R:3:Z:I:1
H        13.99438438       8.55940890       3.28323194         0.00000000       0.00000000       0.00000000          1
H        13.69437715       3.45742806       1.32473662         0.00000000       0.00000000       0.00000000          1
H         0.48412863       6.03535710      13.41670343         0.00000000       0.00000000       0.00000000          1
H         3.98515139       5.19847133      14.89885086         0.00000000       0.00000000       0.00000000          1
H         1.61194279       2.56651822       7.44380828         0.00000000       0.00000000       0.00000000          1
H        11.08824738       1.99599773       1.86389582         0.00000000       0.00000000       0.00000000          1
6
pbc=[F, F, F] list_num_par=6 frozen=false iter=299 energy=-0.11938140 Lattice="15.00000000 0.00000000 0.00000000 0.00000000 15.00000000 0.00000000 0.00000000 0.00000000 15.00000000" energy_frozen_part=0.00000000 Properties=species:S:1:pos:R:3:velocities:R:3:Z:I:1
H         4.55427940      12.00561144       6.74440653         0.00000000       0.00000000       0.00000000          1
H        14.36303845       6.53113966      11.23255970         0.00000000       0.00000000       0.00000000          1
H         3.50642650       3.37089965       7.91474498         0.00000000       0.00000000       0.00000000          1
H        12.84308180       5.96030394       8.57645592         0.00000000       0.00000000       0.00000000          1
H         1.79473375      11.55345272      14.27721616         0.00000000       0.00000000       0.00000000          1
H        12.07071660       6.42108350      14.06046382         0.00000000       0.00000000       0.00000000          1
6
pbc=[F, F, F] list_num_par=6 frozen=false iter=309 energy=-0.12123591 Lattice="15.00000000 0.00000000 0.00000000 0.00000000 15.00000000 0.00000000 0.00000000 0.00000000 15.00000000" energy_frozen_part=0.00000000 Properties=species:S:1:pos:R:3:velocities:R:3:Z:I:1
H         2.90487440       9.47830593      11.05102661         0.00000000       0.00000000       0.00000000          1
H         9.40411890       6.70981005      12.64182354         0.00000000       0.00000000       0.00000000          1