6
pbc=[F, F, F] list_num_par=6 frozen=false iter=20000 energy=-1.26974174 Lattice="15.00000000 0.00000000 0.00000000 0.00000000 15.00000000 0.00000000 0.00000000 0.00000000 15.00000000" energy_frozen_part=0.00000000 Properties=species:S:1:pos:R:3:velocities:R:3:Z:I:1
H         3.34462673      13.45987838       8.34032214         0.00000000       0.00000000       0.00000000          1
H         4.32831422      11.08839985       7.23907837         0.00000000       0.00000000       0.00000000          1
H         6.86081984      11.65987391       8.27062720         0.00000000       0.00000000       0.00000000          1
H         4.64282042      11.59712137       9.96792444         0.00000000       0.00000000       0.00000000          1
H         5.56262201      13.52263316       6.64302922         0.00000000       0.00000000       0.00000000          1
H         5.87713834      14.03134963       9.37187055         0.00000000       0.00000000       0.00000000          1
6
pbc=[F, F, F] list_num_par=6 frozen=false iter=20000 energy=-1.26974174 Lattice="15.00000000 0.00000000 0.00000000 0.00000000 15.00000000 0.00000000 0.00000000 0.00000000 15.00000000" energy_frozen_part=0.00000000 Properties=species:S:1:pos:R:3:velocities:R:3:Z:I:1
H         3.37842913      13.48086034       8.38075071         0.00000000       0.00000000       0.00000000          1
H         4.35394456      11.10331106       7.28534177         0.00000000       0.00000000       0.00000000          1
H         6.88216744      11.65590277       8.33749064         0.00000000       0.00000000       0.00000000          1
H         4.65033342      11.60759735      10.01703386         0.00000000       0.00000000       0.00000000          1
H         5.61025744      13.52915839       6.70120578         0.00000000       0.00000000       0.00000000          1
H         5.90665543      14.03345207       9.43289995         0.00000000       0.00000000       0.00000000          1
6
pbc=[F, F, F] list_num_par=6 frozen=false iter=20000 energy=-1.26974174 Lattice="15.00000000 0.00000000 0.00000000 0.00000000 15.00000000 0.00000000 0.00000000 0.00000000 15.00000000" energy_frozen_part=0.00000000 Properties=species:S:1:pos:R:3:velocities:R:3:Z:I:1
H         3.34439517      13.45990224       8.34014763         0.00000000       0.00000000       0.00000000          1
H         4.32838890      11.08854462       7.23891403         0.00000000       0.00000000       0.00000000          1
H         6.86078587      11.66023492       8.27062827         0.00000000       0.00000000       0.00000000          1
H         4.64268075      11.59723064       9.96778266         0.00000000       0.00000000       0.00000000          1
H         5.56249400      13.52290662       6.64298984         0.00000000       0.00000000       0.00000000          1
H         5.87679261      14.03159127       9.37185362         0.00000000       0.00000000       0.00000000          1
6
pbc=[F, F, F] list_num_par=6 frozen=false iter=20000 energy=-1.26974174 Lattice="15.00000000 0.00000000 0.00000000 0.00000000 15.00000000 0.00000000 0.00000000 0.00000000 15.00000000" energy_frozen_part=0.00000000 Properties=species:S:1:pos:R:3:velocities:R:3:Z:I:1
H         3.34368956      13.46112257       8.33985178         0.00000000       0.00000000       0.00000000          1
H         4.32675890      11.08963254       7.23809165         0.00000000       0.00000000       0.00000000          1
H         6.85898037      11.65928848       8.27135320         0.00000000       0.00000000       0.00000000          1
H         4.63997473      11.59693177       9.96734322         0.00000000       0.00000000       0.00000000          1
H         5.56270351      13.52347658       6.64385155         0.00000000       0.00000000       0.00000000          1
H         5.87590904      14.03078670       9.37310849         0.00000000       0.00000000       0.00000000          1
6
pbc=[F, F, F] list_num_par=6 frozen=false iter=20000 energy=-1.26974174 Lattice="15.00000000 0.00000000 0.00000000 0.00000000 15.00000000 0.00000000 0.00000000 0.00000000 15.00000000" energy_frozen_part=0.00000000 Properties=species:S:1:pos:R:3:velocities:R:3:Z:I:1
H         3.34460747      13.45989542       8.34033816         0.00000000       0.00000000       0.00000000          1
H         4.32830478      11.08843494       7.23906057         0.00000000       0.00000000       0.00000000          1
H         6.86080924      11.65989202       8.27062357         0.00000000       0.00000000       0.00000000          1
H         4.64280675      11.59711382       9.96791912         0.00000000       0.00000000       0.00000000          1
H         5.56261302      13.52267385       6.64304955         0.00000000       0.00000000       0.00000000          1
H         5.87711585      14.03135145       9.37189848         0.00000000       0.00000000       0.00000000          1
6
pbc=[F, F, F] list_num_par=6 frozen=false iter=20000 energy=-1.26974174 Lattice="15.00000000 0.00000000 0.00000000 0.00000000 15.00000000 0.00000000 0.00000000 0.00000000 15.00000000" energy_frozen_part=0.00000000 Properties=species:S:1:pos:R:3:velocities:R:3:Z:I:1
H         3.34366137      13.46108366       8.33987445         0.00000000       0.00000000       0.00000000          1
H         4.32677964      11.08963761       7.23805059         0.00000000       0.00000000       0.00000000          1
H         6.85899580      11.65933379       8.27129444         0.00000000       0.00000000       0.00000000          1
H         4.64000854      11.59688965       9.96730945         0.00000000       0.00000000       0.00000000          1
H         5.56264724      13.52353183       6.64385915         0.00000000       0.00000000       0.00000000          1
H         5.87587938      14.03078849       9.37311931         0.00000000       0.00000000       0.00000000          1
6
pbc=[F, F, F] list_num_par=6 frozen=false iter=20000 energy=-1.26974174 Lattice="15.00000000 0.00000000 0.00000000 0.00000000 15.00000000 0.00000000 0.00000000 0.00000000 15.00000000" energy_frozen_part=0.00000000 Properties=species:S:1:pos:R:3:velocities:R:3:Z:I:1
H         3.34366835      13.46113398       8.33982622         0.00000000       0.00000000       0.00000000          1
H         4.32673240      11.08962978       7.23808808         0.00000000       0.00000000       0.00000000          1
H         6.85894633      11.65928259       8.27137122         0.00000000       0.00000000       0.00000000          1
H         4.63991708      11.59693791       9.96733983         0.00000000       0.00000000       0.00000000          1
H         5.56269277      13.52346429       6.64384835         0.00000000       0.00000000       0.00000000          1
H         5.87587755      14.03078149       9.37310533         0.00000000       0.00000000       0.00000000          1
6
pbc=[F, F, F] list_num_par=6 frozen=false iter=20000 energy=-1.26974174 Lattice="15.00000000 0.00000000 0.00000000 0.00000000 15.00000000 0.00000000 0.00000000 0.00000000 15.00000000" energy_frozen_part=0.00000000 Properties=species:S:1:pos:R:3:velocities:R:3:Z:I:1
H         3.38782590      13.58864505       8.44897377         0.00000000       0.00000000       0.00000000          1
H         4.20905780      11.15579277       7.34846873         0.00000000       0.00000000       0.00000000          1
H         6.78591685      11.57614782       8.34214872         0.00000000       0.00000000       0.00000000          1
H         4.59206204      11.65804350      10.06974418         0.00000000       0.00000000       0.00000000          1
H         5.58168239      13.50673857       6.72137669         0.00000000       0.00000000       0.00000000          1
H         5.96468868      14.00899160       9.44265203         0.00000000       0.00000000       0.00000000          1
6
pbc=[F, F, F] list_num_par=6 frozen=false iter=20000 energy=-1.26974174 Lattice="15.00000000 0.00000000 0.00000000 0.00000000 15.00000000 0.00000000 0.00000000 0.00000000 15.00000000" energy_frozen_part=0.00000000 Properties=species:S:1:pos:R:3:velocities:R:3:Z:I:1
H         3.34366182      13.46089280       8.33962164         0.00000000       0.00000000       0.00000000          1
H         4.32712338      11.08934247       7.23833624         0.00000000       0.00000000       0.00000000          1
H         6.85931864      11.65976765       8.27124139         0.00000000       0.00000000       0.00000000          1
H         4.64046574      11.59734659       9.96744048         0.00000000       0.00000000       0.00000000          1
H         5.56250921      13.52330409       6.64342164         0.00000000       0.00000000       0.00000000          1
H         5.87585659      14.03131000       9.37253772         0.00000000       0.00000000       0.00000000          1
6
pbc=[F, F, F] list_num_par=6 frozen=false iter=20000 energy=-1.26974174 Lattice="15.00000000 0.00000000 0.00000000 0.00000000 15.00000000 0.00000000 0.00000000 0.00000000 15.00000000" energy_frozen_part=0.00000000 Properties=species:S:1:pos:R:3:velocities:R:3:Z:I:1
H         3.34464834      13.45987821       8.34029977         0.00000000       0.00000000       0.00000000          1
H         4.32835397      11.08839910       7.23908426         0.00000000       0.00000000       0.00000000          1
H         6.86086082      11.65988005       8.27063293         0.00000000       0.00000000       0.00000000          1
H         4.64285425      11.59712808       9.96792082         0.00000000       0.00000000       0.00000000          1
H         5.56265829      13.52262750       6.64301486         0.00000000       0.00000000       0.00000000          1
H         5.87715310      14.03135749       9.37185943         0.00000000       0.00000000       0.00000000          1
6
pbc=[F, F, F] list_num_par=6 frozen=false iter=20000 energy=-1.26974174 Lattice="15.00000000 0.00000000 0.00000000 0.00000000 15.00000000 0.00000000 0.00000000 0.00000000 15.00000000" energy_frozen_part=0.00000000 Properties=species:S:1:pos:R:3:velocities:R:3:Z:I:1
H         3.34361893      13.46090401       8.33964610         0.00000000       0.00000000       0.00000000          1
H         4.32702771      11.08935645       7.23831511         0.00000000       0.00000000       0.00000000          1
H         6.85925283      11.65974145       8.27117967         0.00000000       0.00000000       0.00000000          1
H         4.64043981      11.59733106       9.96741793         0.00000000       0.00000000       0.00000000          1
H         5.56243756      13.52331069       6.64340647         0.00000000       0.00000000       0.00000000          1
H         5.87584078      14.03129486       9.37251047         0.00000000       0.00000000       0.00000000          1
6
pbc=[F, F, F] list_num_par=6 frozen=false iter=20000 energy=-1.26974174 Lattice="15.00000000 0.00000000 0.00000000 0.00000000 15.00000000 0.00000000 0.00000000 0.00000000 15.00000000" energy_frozen_part=0.00000000 Properties=species:S:1:pos:R:3:velocities:R:3:Z:I:1
H         3.34364450      13.46106961       8.33987792         0.00000000       0.00000000       0.00000000          1
H         4.32678771      11.08963287       7.23805757         0.00000000       0.00000000       0.00000000          1
H         6.85900013      11.65936002       8.27131022         0.00000000       0.00000000       0.00000000          1
H         4.64000231      11.59687833       9.96731982         0.00000000       0.00000000       0.00000000          1
H         5.56263636      13.52354271       6.64386963         0.00000000       0.00000000       0.00000000          1
H         5.87585483      14.03078717       9.37313983         0.00000000       0.00000000       0.00000000          1
6
pbc=[F, F, F] list_num_par=6 frozen=false iter=20000 energy=-1.26974174 Lattice="15.00000000 0.00000000 0.00000000 0.00000000 15.00000000 0.00000000 0.00000000 0.00000000 15.00000000" energy_frozen_part=0.00000000 Properties=species:S:1:pos:R:3:velocities:R:3:Z:I:1
H         3.34365794      13.46108247       8.33987115         0.00000000       0.00000000       0.00000000          1
H         4.32677530      11.08964231       7.23804003         0.00000000       0.00000000       0.00000000          1
H         6.85899717      11.65933542       8.27128423         0.00000000       0.00000000       0.00000000          1
H         4.64000302      11.59688325       9.96730623         0.00000000       0.00000000       0.00000000          1
H         5.56264455      13.52353324       6.64385469         0.00000000       0.00000000       0.00000000          1
H         5.87587458      14.03077566       9.37312094         0.00000000       0.00000000       0.00000000          1
6
pbc=[F, F, F] list_num_par=6 frozen=false iter=20000 energy=-1.26974174 Lattice="15.00000000 0.00000000 0.00000000 0.00000000 15.00000000 0.00000000 0.00000000 0.00000000 15.00000000" energy_frozen_part=0.00000000 Properties=species:S:1:pos:R:3:velocities:R:3:Z:I:1
H         3.34440403      13.45994514       8.34013946         0.00000000       0.00000000       0.00000000          1
H         4.32836040      11.08857539       7.23889480         0.00000000       0.00000000       0.00000000          1
H         6.86076506      11.66023179       8.27061519         0.00000000       0.00000000       0.00000000          1
H         4.64265627      11.59724954       9.96776855         0.00000000       0.00000000       0.00000000          1
H         5.56250408      13.52292264       6.64298842         0.00000000       0.00000000       0.00000000          1
H         5.87680841      14.03159903       9.37186244         0.00000000       0.00000000       0.00000000          1
6
pbc=[F, F, F] list_num_par=6 frozen=false iter=20000 energy=-1.26974174 Lattice="15.00000000 0.00000000 0.00000000 0.00000000 15.00000000 0.00000000 0.00000000 0.00000000 15.00000000" energy_frozen_part=0.00000000 Properties=species:S:1:pos:R:3:velocities:R:3:Z:I:1
H         3.34366132      13.46107798       8.33988428         0.00000000       0.00000000       0.00000000          1
H         4.32678482      11.08963370       7.23806607         0.00000000       0.00000000       0.00000000          1
H         6.85900032      11.65934969       8.27130353         0.00000000       0.00000000       0.00000000          1
H         4.64001945      11.59688792       9.96732374         0.00000000       0.00000000       0.00000000          1
H         5.56264457      13.52353190       6.64386197         0.00000000       0.00000000       0.00000000          1
H         5.87587255      14.03079474       9.37312795         0.00000000       0.00000000       0.00000000          1
6
pbc=[F, F, F] list_num_par=6 frozen=false iter=20000 energy=-1.26974174 Lattice="15.00000000 0.00000000 0.00000000 0.00000000 15.00000000 0.00000000 0.00000000 0.00000000 15.00000000" energy_frozen_part=0.00000000 Properties=species:S:1:pos:R:3:velocities:R:3:Z:I:1
H         3.34366767      13.46111703       8.33982165         0.00000000       0.00000000       0.00000000          1
H         4.32674285      11.08961644       7.23808496         0.00000000       0.00000000       0.00000000          1
H         6.85895899      11.65928208       8.27136536         0.00000000       0.00000000       0.00000000          1
H         4.63993084      11.59693387       9.96733334         0.00000000       0.00000000       0.00000000          1
H         5.56269229      13.52346445       6.64384787         0.00000000       0.00000000       0.00000000          1
H         5.87587190      14.03078000       9.37310621         0.00000000       0.00000000       0.00000000          1
6
pbc=[F, F, F] list_num_par=6 frozen=false iter=20000 energy=-1.26974174 Lattice="15.00000000 0.00000000 0.00000000 0.00000000 15.00000000 0.00000000 0.00000000 0.00000000 15.00000000" energy_frozen_part=0.00000000 Properties=species:S:1:pos:R:3:velocities:R:3:Z:I:1
H         3.34360740      13.46090275       8.33961757         0.00000000       0.00000000       0.00000000          1
H         4.32703949      11.08936255       7.23830032         0.00000000       0.00000000       0.00000000          1
H         6.85923737      11.65973643       8.27124047         0.00000000       0.00000000       0.00000000          1
H         4.64037317      11.59732368       9.96741977         0.00000000       0.00000000       0.00000000          1
H         5.56247398      13.52331419       6.64343733         0.00000000       0.00000000       0.00000000          1
H         5.87579664      14.03128334       9.37255495         0.00000000       0.00000000       0.00000000          1
6
pbc=[F, F, F] list_num_par=6 frozen=false iter=20000 energy=-1.26974174 Lattice="15.00000000 0.00000000 0.00000000 0.00000000 15.00000000 0.00000000 0.00000000 0.00000000 15.00000000" energy_frozen_part=0.00000000 Properties=species:S:1:pos:R:3:velocities:R:3:Z:I:1
H         3.37843125      13.48086091       8.38074525         0.00000000       0.00000000       0.00000000          1
H         4.35394829      11.10331513       7.28532846         0.00000000       0.00000000       0.00000000          1
H         6.88216923      11.65589636       8.33749074         0.00000000       0.00000000       0.00000000          1
H         4.65032611      11.60759322      10.01702785         0.00000000       0.00000000       0.00000000          1
H         5.61027312      13.52916718       6.70120650         0.00000000       0.00000000       0.00000000          1
H         5.90665585      14.03343673       9.43290462         0.00000000       0.00000000       0.00000000          1
6
pbc=[F, F, F] list_num_par=6 frozen=false iter=20000 energy=-1.26974174 Lattice="15.00000000 0.00000000 0.00000000 0.00000000 15.00000000 0.00000000 0.00000000 0.00000000 15.00000000" energy_frozen_part=0.00000000 Properties=species:S:1:pos:R:3:velocities:R:3:Z:I:1
H         3.34365106      13.46112176       8.33982786         0.00000000       0.00000000       0.00000000          1
H         4.32675854      11.08964696       7.23805221         0.00000000       0.00000000       0.00000000          1
H         6.85895877      11.65932079       8.27135069         0.00000000       0.00000000       0.00000000          1
H         4.63992958      11.59692657       9.96731227         0.00000000       0.00000000       0.00000000          1
H         5.56267434      13.52351122       6.64385589         0.00000000       0.00000000       0.00000000          1
H         5.87585823      14.03078984       9.37312079         0.00000000       0.00000000       0.00000000          1
6
pbc=[F, F, F] list_num_par=6 frozen=false iter=20000 energy=-1.26974174 Lattice="15.00000000 0.00000000 0.00000000 0.00000000 15.00000000 0.00000000 0.00000000 0.00000000 15.00000000" energy_frozen_part=0.00000000 Properties=species:S:1:pos:R:3:velocities:R:3:Z:I:1
H         3.34367366      13.46112000       8.33985135         0.00000000       0.00000000       0.00000000          1
H         4.32674490      11.08962562       7.23809373         0.00000000       0.00000000       0.00000000          1
H         6.85896830      11.65928491       8.27137034         0.00000000       0.00000000       0.00000000          1
H         4.63994582      11.59693048       9.96734784         0.00000000       0.00000000       0.00000000          1
H         5.56268688      13.52347161       6.64386382         0.00000000       0.00000000       0.00000000          1
H         5.87589188      14.03077924       9.37311472         0.00000000       0.00000000       0.00000000          1
6
pbc=[F, F, F] list_num_par=6 frozen=false iter=20000 energy=-1.26974174 Lattice="15.00000000 0.00000000 0.00000000 0.00000000 15.00000000 0.00000000 0.00000000 0.00000000 15.00000000" energy_frozen_part=0.00000000 Properties=species:S:1:pos:R:3:velocities:R:3:Z:I:1
H         3.34362636      13.46092171       8.33963363         0.00000000       0.00000000       0.00000000          1
H         4.32702470      11.08936717       7.23829424         0.00000000       0.00000000       0.00000000          1
H         6.85924108      11.65973363       8.27116696         0.00000000       0.00000000       0.00000000          1
H         4.64041816      11.59734276       9.96740673         0.00000000       0.00000000       0.00000000          1
H         5.56244204      13.52332142       6.64339522         0.00000000       0.00000000       0.00000000          1
H         5.87584780      14.03129107       9.37250100         0.00000000       0.00000000       0.00000000          1
6
pbc=[F, F, F] list_num_par=6 frozen=false iter=20000 energy=-1.26974174 Lattice="15.00000000 0.00000000 0.00000000 0.00000000 15.00000000 0.00000000 0.00000000 0.00000000 15.00000000" energy_frozen_part=0.00000000 Properties=species:S:1:pos:R:3:velocities:R:3:Z:I:1
H         3.34363930      13.46082928       8.33955531         0.00000000       0.00000000       0.00000000          1
H         4.32714606      11.08929549       7.23825717         0.00000000       0.00000000       0.00000000          1
H         6.85931887      11.65974708       8.27119355         0.00000000       0.00000000       0.00000000          1
H         4.64045614      11.59729547       9.96737169         0.00000000       0.00000000       0.00000000          1
H         5.56250045      13.52327306       6.64337214         0.00000000       0.00000000       0.00000000          1
H         5.87581851      14.03127929       9.37248206         0.00000000       0.00000000       0.00000000          1
6
pbc=[F, F, F] list_num_par=6 frozen=false iter=20000 energy=-1.26974174 Lattice="15.00000000 0.00000000 0.00000000 0.00000000 15.00000000 0.00000000 0.00000000 0.00000000 15.00000000" energy_frozen_part=0.00000000 Properties=species:S:1:pos:R:3:velocities:R:3:Z:I:1
H         3.34462831      13.45991072       8.34033036         0.00000000       0.00000000       0.00000000          1
H         4.32831864      11.08844221       7.23907868         0.00000000       0.00000000       0.00000000          1
H         6.86082544      11.65988581       8.27066031         0.00000000       0.00000000       0.00000000          1
H         4.64279950      11.59713432       9.96792421         0.00000000       0.00000000       0.00000000          1
H         5.56265178      13.52266452       6.64306019         0.00000000       0.00000000       0.00000000          1
H         5.87713182      14.03135832       9.37190923         0.00000000       0.00000000       0.00000000          1
6
pbc=[F, F, F] list_num_par=6 frozen=false iter=20000 energy=-1.26974174 Lattice="15.00000000 0.00000000 0.00000000 0.00000000 15.00000000 0.00000000 0.00000000 0.00000000 15.00000000" energy_frozen_part=0.00000000 Properties=species:S:1:pos:R:3:velocities:R:3:Z:I:1
H         3.34361998      13.46089764       8.33964658         0.00000000       0.00000000       0.00000000          1
H         4.32704639      11.08935367       7.23831362         0.00000000       0.00000000       0.00000000          1
H         6.85926319      11.65974735       8.27117931         0.00000000       0.00000000       0.00000000          1
H         4.64044510      11.59733304       9.96742214         0.00000000       0.00000000       0.00000000          1
H         5.56243966      13.52330866       6.64339524         0.00000000       0.00000000       0.00000000          1
H         5.87584096      14.03129335       9.37250762         0.00000000       0.00000000       0.00000000          1
6
pbc=[F, F, F] list_num_par=6 frozen=false iter=20000 energy=-1.26974174 Lattice="15.00000000 0.00000000 0.00000000 0.00000000 15.00000000 0.00000000 0.00000000 0.00000000 15.00000000" energy_frozen_part=0.00000000 Properties=species:S:1:pos:R:3:velocities:R:3:Z:I:1
H         3.34362507      13.46093942       8.33965894         0.00000000       0.00000000       0.00000000          1
H         4.32702313      11.08938951       7.23831595         0.00000000       0.00000000       0.00000000          1
H         6.85925067      11.65975213       8.27117619         0.00000000       0.00000000       0.00000000          1
H         4.64043710      11.59735840       9.96742512         0.00000000       0.00000000       0.00000000          1
H         5.56243779      13.52333841       6.64341085         0.00000000       0.00000000       0.00000000          1
H         5.87585938      14.03131185       9.37251674         0.00000000       0.00000000       0.00000000          1
6
pbc=[F, F, F] list_num_par=6 frozen=false iter=20000 energy=-1.26974174 Lattice="15.00000000 0.00000000 0.00000000 0.00000000 15.00000000 0.00000000 0.00000000 0.00000000 15.00000000" energy_frozen_part=0.00000000 Properties=species:S:1:pos:R:3:velocities:R:3:Z:I:1
H         3.34363191      13.46105367       8.33982370         0.00000000       0.00000000       0.00000000          1
H         4.32678422      11.08962402       7.23800018         0.00000000       0.00000000       0.00000000          1
H         6.85898234      11.65934212       8.27126988         0.00000000       0.00000000       0.00000000          1
H         4.63997996      11.59686847       9.96727019         0.00000000       0.00000000       0.00000000          1
H         5.56263370      13.52353068       6.64381788         0.00000000       0.00000000       0.00000000          1
H         5.87583550      14.03077418       9.37308937         0.00000000       0.00000000       0.00000000          1
6
pbc=[F, F, F] list_num_par=6 frozen=false iter=20000 energy=-1.26974174 Lattice="15.00000000 0.00000000 0.00000000 0.00000000 15.00000000 0.00000000 0.00000000 0.00000000 15.00000000" energy_frozen_part=0.00000000 Properties=species:S:1:pos:R:3:velocities:R:3:Z:I:1
H         3.34366407      13.46107946       8.33987803         0.00000000       0.00000000       0.00000000          1
H         4.32678205      11.08962855       7.23806765         0.00000000       0.00000000       0.00000000          1
H         6.85899353      11.65934412       8.27131234         0.00000000       0.00000000       0.00000000          1
H         4.64001260      11.59689854       9.96732990         0.00000000       0.00000000       0.00000000          1
H         5.56264633      13.52352357       6.64385571         0.00000000       0.00000000       0.00000000          1
H         5.87587662      14.03079255       9.37311526         0.00000000       0.00000000       0.00000000          1
6
pbc=[F, F, F] list_num_par=6 frozen=false iter=20000 energy=-1.26974174 Lattice="15.00000000 0.00000000 0.00000000 0.00000000 15.00000000 0.00000000 0.00000000 0.00000000 15.00000000" energy_frozen_part=0.00000000 Properties=species:S:1:pos:R:3:velocities:R:3:Z:I:1
H         3.34361211      13.46093431       8.33965445         0.00000000       0.00000000       0.00000000          1
H         4.32701940      11.08939359       7.23830761         0.00000000       0.00000000       0.00000000          1
H         6.85924018      11.65974821       8.27118489         0.00000000       0.00000000       0.00000000          1
H         4.64041171      11.59734359       9.96742308         0.00000000       0.00000000       0.00000000          1
H         5.56244165      13.52334258       6.64341758         0.00000000       0.00000000       0.00000000          1
H         5.87583500      14.03129681       9.37252577         0.00000000       0.00000000       0.00000000          1
6
pbc=[F, F, F] list_num_par=6 frozen=false iter=20000 energy=-1.26974174 Lattice="15.00000000 0.00000000 0.00000000 0.00000000 15.00000000 0.00000000 0.00000000 0.00000000 15.00000000" energy_frozen_part=0.00000000 Properties=species:S:1:pos:R:3:velocities:R:3:Z:I:1
H         3.34441036      13.45994465       8.34015752         0.00000000       0.00000000       0.00000000          1
H         4.32837783      11.08857145       7.23892933         0.00000000       0.00000000       0.00000000          1
H         6.86077115      11.66023821       8.27064959         0.00000000       0.00000000       0.00000000          1
H         4.64267401      11.59726590       9.96780543         0.00000000       0.00000000       0.00000000          1
H         5.56251325      13.52292152       6.64300225         0.00000000       0.00000000       0.00000000          1
H         5.87681037      14.03160951       9.37187076         0.00000000       0.00000000       0.00000000          1
6
pbc=[F, F, F] list_num_par=6 frozen=false iter=20000 energy=-1.26974174 Lattice="15.00000000 0.00000000 0.00000000 0.00000000 15.00000000 0.00000000 0.00000000 0.00000000 15.00000000" energy_frozen_part=0.00000000 Properties=species:S:1:pos:R:3:velocities:R:3:Z:I:1
H         3.34441332      13.45994099       8.34017783         0.00000000       0.00000000       0.00000000          1
H         4.32836217      11.08856826       7.23893694         0.00000000       0.00000000       0.00000000          1
H         6.86077164      11.66023120       8.27063206         0.00000000       0.00000000       0.00000000          1
H         4.64268098      11.59725853       9.96780978         0.00000000       0.00000000       0.00000000          1
H         5.56249549      13.52291678       6.64300699         0.00000000       0.00000000       0.00000000          1
H         5.87681863      14.03160482       9.37187432         0.00000000       0.00000000       0.00000000          1
6
pbc=[F, F, F] list_num_par=6 frozen=false iter=20000 energy=-1.26974174 Lattice="15.00000000 0.00000000 0.00000000 0.00000000 15.00000000 0.00000000 0.00000000 0.00000000 15.00000000" energy_frozen_part=0.00000000 Properties=species:S:1:pos:R:3:velocities:R:3:Z:I:1
H         3.34366115      13.46111388       8.33982625         0.00000000       0.00000000       0.00000000          1
H         4.32674317      11.08961599       7.23808403         0.00000000       0.00000000       0.00000000          1