6
pbc=[F, F, F] list_num_par=6 frozen=false iter=9 energy=27.73807210 Lattice="15.00000000 0.00000000 0.00000000 0.00000000 15.00000000 0.00000000 0.00000000 0.00000000 15.00000000" energy_frozen_part=0.00000000 Properties=species:S:1:pos:R:3:velocities:R:3:Z:I:1
H         6.35023847      13.37404351      12.52159407         0.00000000       0.00000000       0.00000000          1
H         6.48717006      10.79619121       8.12613691         0.00000000       0.00000000       0.00000000          1
H         0.73045268       3.82902039       3.25997289         0.00000000       0.00000000       0.00000000          1
H         6.84844451      11.89266503       9.42559327         0.00000000       0.00000000       0.00000000          1
H         7.89898297       3.12641268       5.68427200         0.00000000       0.00000000       0.00000000          1
H         2.20958435       7.97517686       6.44231049         0.00000000       0.00000000       0.00000000          1
6
pbc=[F, F, F] list_num_par=6 frozen=false iter=19 energy=0.27222396 Lattice="15.00000000 0.00000000 0.00000000 0.00000000 15.00000000 0.00000000 0.00000000 0.00000000 15.00000000" energy_frozen_part=0.00000000 Properties=species:S:1:pos:R:3:velocities:R:3:Z:I:1
H        11.75160387      11.59225313      11.21024314         0.00000000       0.00000000       0.00000000          1
H         0.13243924       8.43658979      14.57372741         0.00000000       0.00000000       0.00000000          1
H         1.34729152       6.71675454      13.54111698         0.00000000       0.00000000       0.00000000          1
H        14.38553314       3.33494554      14.01008035         0.00000000       0.00000000       0.00000000          1
H         9.01687307      12.94356519       0.74582745         0.00000000       0.00000000       0.00000000          1
H        12.95331167       9.30746595       5.53206941         0.00000000       0.00000000       0.00000000          1
6
pbc=[F, F, F] list_num_par=6 frozen=false iter=29 energy=-0.00287830 Lattice="15.00000000 0.00000000 0.00000000 0.00000000 15.00000000 0.00000000 0.00000000 0.00000000 15.00000000" energy_frozen_part=0.00000000 Properties=species:S:1:pos:R:3:velocities:R:3:Z:I:1
H         7.22718901      14.80264571       3.18006046         0.00000000       0.00000000       0.00000000          1
H         8.57311926       3.44264182      11.05763260         0.00000000       0.00000000       0.00000000          1
H        10.77854556      13.12932074      10.84856568         0.00000000       0.00000000       0.00000000          1
H        11.82247919       6.20755080       2.46187178         0.00000000       0.00000000       0.00000000          1
H         3.84888364       7.54622966      10.06247612         0.00000000       0.00000000       0.00000000          1
H        14.73511425       5.19737399      12.53156673         0.00000000       0.00000000       0.00000000          1
6
pbc=[F, F, F] list_num_par=6 frozen=false iter=39 energy=-0.00629999 Lattice="15.00000000 0.00000000 0.00000000 0.00000000 15.00000000 0.00000000 0.00000000 0.00000000 15.00000000" energy_frozen_part=0.00000000 Properties=species:S:1:pos:R:3:velocities:R:3:Z:I:1
H        14.31086143       8.53867397      10.71940641         0.00000000       0.00000000       0.00000000          1
H         7.88806090      13.51052097      10.71415441         0.00000000       0.00000000       0.00000000          1
H        11.27865860       9.05139534       5.01274923         0.00000000       0.00000000       0.00000000          1
H         5.94359779       6.63042679       7.34635552         0.00000000       0.00000000       0.00000000          1
H         0.24930949       6.66469984       8.65156625         0.00000000       0.00000000       0.00000000          1
H         6.13338048      12.82057454       0.57231288         0.00000000       0.00000000       0.00000000          1
6
pbc=[F, F, F] list_num_par=6 frozen=false iter=49 energy=-0.00902586 Lattice="15.00000000 0.00000000 0.00000000 0.00000000 15.00000000 0.00000000 0.00000000 0.00000000 15.00000000" energy_frozen_part=0.00000000 Properties=species:S:1:pos:R:3:velocities:R:3:Z:I:1
H         5.51155889      13.69199741       2.05937375         0.00000000       0.00000000       0.00000000          1
H         1.23919927       6.05816922       5.66749662         0.00000000       0.00000000       0.00000000          1
H         1.15214408       8.85562445      11.18574499         0.00000000       0.00000000       0.00000000          1
H         6.73445167       1.06055592       6.39707172         0.00000000       0.00000000       0.00000000          1
H         6.42102670       7.37252043       4.23226617         0.00000000       0.00000000       0.00000000          1
H        11.55282053      11.96450668       0.55950288         0.00000000       0.00000000       0.00000000          1
6
pbc=[F, F, F] list_num_par=6 frozen=false iter=59 energy=-0.01447669 Lattice="15.00000000 0.00000000 0.00000000 0.00000000 15.00000000 0.00000000 0.00000000 0.00000000 15.00000000" energy_frozen_part=0.00000000 Properties=species:S:1:pos:R:3:velocities:R:3:Z:I:1
H        12.00359427       2.92021830       3.90672676         0.00000000       0.00000000       0.00000000          1
H        13.76364077       9.65785173       0.86288505         0.00000000       0.00000000       0.00000000          1
H         2.08229257       3.70209708      14.25093876         0.00000000       0.00000000       0.00000000          1
H        13.06460812      10.83387217       9.63866696         0.00000000       0.00000000       0.00000000          1
H         8.22001514      12.95244998      12.91006425         0.00000000       0.00000000       0.00000000          1
H         9.52175206      12.01967639       7.00101707         0.00000000       0.00000000       0.00000000          1
6
pbc=[F, F, F] list_num_par=6 frozen=false iter=69 energy=-0.02006187 Lattice="15.00000000 0.00000000 0.00000000 0.00000000 15.00000000 0.00000000 0.00000000 0.00000000 15.00000000" energy_frozen_part=0.00000000 Properties=species:S:1:pos:R:3:velocities:R:3:Z:I:1
H         7.08879129       7.90989816       4.85782200         0.00000000       0.00000000       0.00000000          1
H         2.11617841       1.69038627       8.89275995         0.00000000       0.00000000       0.00000000          1
H        11.26936199       9.17726516      11.58101996         0.00000000       0.00000000       0.00000000          1
H        11.57179163      10.41406118       1.56026141         0.00000000       0.00000000       0.00000000          1
H        10.25351398      14.55424873       1.18041965         0.00000000       0.00000000       0.00000000          1
H         6.83539393       0.48405155      11.07770519         0.00000000       0.00000000       0.00000000          1
6
pbc=[F, F, F] list_num_par=6 frozen=false iter=79 energy=-0.02418589 Lattice="15.00000000 0.00000000 0.00000000 0.00000000 15.00000000 0.00000000 0.00000000 0.00000000 15.00000000" energy_frozen_part=0.00000000 Properties=species:S:1:pos:R:3:velocities:R:3:Z:I:1
H         9.65182170      14.91766787      12.30825997         0.00000000       0.00000000       0.00000000          1
H         6.43818733      12.91188002      13.57066034         0.00000000       0.00000000       0.00000000          1
H         4.13404565       5.41690145       4.40572217         0.00000000       0.00000000       0.00000000          1
H         9.34406381      11.73186743       2.78964354         0.00000000       0.00000000       0.00000000          1
H         4.29238918      14.79101909       0.58126729         0.00000000       0.00000000       0.00000000          1
H        11.65071724       2.51093109      12.81968347         0.00000000       0.00000000       0.00000000          1
6
pbc=[F, F, F] list_num_par=6 frozen=false iter=89 energy=-0.02777493 Lattice="15.00000000 0.00000000 0.00000000 0.00000000 15.00000000 0.00000000 0.00000000 0.00000000 15.00000000" energy_frozen_part=0.00000000 Properties=species:S:1:pos:R:3:velocities:R:3:Z:I:1
H         1.41811622      13.48930050      13.78582492         0.00000000       0.00000000       0.00000000          1
H         7.07678049      10.57729807      12.21170296         0.00000000       0.00000000       0.00000000          1
H        11.85741834       7.39220306       0.26325095         0.00000000       0.00000000       0.00000000          1
H         5.14347703      10.08838942       3.13981912         0.00000000       0.00000000       0.00000000          1
H         1.18408296       0.69967033      13.54048924         0.00000000       0.00000000       0.00000000          1
H         7.66712348       6.97430124       3.41788047         0.00000000       0.00000000       0.00000000          1
6
pbc=[F, F, F] list_num_par=6 frozen=false iter=99 energy=-0.03149399 Lattice="15.00000000 0.00000000 0.00000000 0.00000000 15.00000000 0.00000000 0.00000000 0.00000000 15.00000000" energy_frozen_part=0.00000000 Properties=species:S:1:pos:R:3:velocities:R:3:Z:I:1
H         0.72171918       5.55806635      14.07798525         0.00000000       0.00000000       0.00000000          1
H         4.59582722       8.45661442      14.71799213         0.00000000       0.00000000       0.00000000          1
H         0.82974900       8.26761618       0.52941778         0.00000000       0.00000000       0.00000000          1
H        12.55452234       9.07631185      11.37161958         0.00000000       0.00000000       0.00000000          1
H         8.59880254       9.75253718      13.32612707         0.00000000       0.00000000       0.00000000          1
H         8.18405104       2.53994559       5.86730124         0.00000000       0.00000000       0.00000000          1
6
pbc=[F, F, F] list_num_par=6 frozen=false iter=109 energy=-0.03420058 Lattice="15.00000000 0.00000000 0.00000000 0.00000000 15.00000000 0.00000000 0.00000000 0.00000000 15.00000000" energy_frozen_part=0.00000000 Properties=species:S:1:pos:R:3:velocities:R:3:Z:I:1
H        14.04270394       1.11958178       2.95765520         0.00000000       0.00000000       0.00000000          1
H         3.50143390      11.35965858      12.61844537         0.00000000       0.00000000       0.00000000          1
H        11.87571271      11.80016172       8.94792488         0.00000000       0.00000000       0.00000000          1
H        11.32117681       1.33823745      12.07042653         0.00000000       0.00000000       0.00000000          1
H         0.91698921       7.98051330      12.78244926         0.00000000       0.00000000       0.00000000          1
H         1.66978847      14.96401293      13.61013718         0.00000000       0.00000000       0.00000000          1
6
pbc=[F, F, F] list_num_par=6 frozen=false iter=119 energy=-0.03807960 Lattice="15.00000000 0.00000000 0.00000000 0.00000000 15.00000000 0.00000000 0.00000000 0.00000000 15.00000000" energy_frozen_part=0.00000000 Properties=species:S:1:pos:R:3:velocities:R:3:Z:I:1
H         2.69051073       1.12268130       0.20320239         0.00000000       0.00000000       0.00000000          1
H         7.95337779      14.56583578       1.54370026         0.00000000       0.00000000       0.00000000          1
H         7.07025789       7.12034718      12.93569370         0.00000000       0.00000000       0.00000000          1
H         9.72732223       9.01221502       1.20097436         0.00000000       0.00000000       0.00000000          1
H        13.74983332       9.75092101       8.14083625         0.00000000       0.00000000       0.00000000          1
H         7.71197558      10.33504723      11.22454998         0.00000000       0.00000000       0.00000000          1
6
pbc=[F, F, F] list_num_par=6 frozen=false iter=129 energy=-0.04231345 Lattice="15.00000000 0.00000000 0.00000000 0.00000000 15.00000000 0.00000000 0.00000000 0.00000000 15.00000000" energy_frozen_part=0.00000000 Properties=species:S:1:pos:R:3:velocities:R:3:Z:I:1
H         7.51929342       3.52350846       6.97344650         0.00000000       0.00000000       0.00000000          1
H         2.13357660      10.90154870       5.02205775         0.00000000       0.00000000       0.00000000          1
H        13.19224818      11.24094640      13.82288239         0.00000000       0.00000000       0.00000000          1
H         3.06434902       9.29830314       8.17738763         0.00000000       0.00000000       0.00000000          1
H        11.33458059      11.64614720       2.27855651         0.00000000       0.00000000       0.00000000          1
H         6.16890506      11.41648836      11.86439188         0.00000000       0.00000000       0.00000000          1
6
pbc=[F, F, F] list_num_par=6 frozen=false iter=139 energy=-0.04491107 Lattice="15.00000000 0.00000000 0.00000000 0.00000000 15.00000000 0.00000000 0.00000000 0.00000000 15.00000000" energy_frozen_part=0.00000000 Properties=species:S:1:pos:R:3:velocities:R:3:Z:I:1
H        13.56601159      10.11202612      14.22654794         0.00000000       0.00000000       0.00000000          1
H         2.75713424       5.32184834       3.82286126         0.00000000       0.00000000       0.00000000          1
H        10.22205335       3.46997957      12.29462449         0.00000000       0.00000000       0.00000000          1
H         0.18652011       7.23355673       5.32322770         0.00000000       0.00000000       0.00000000          1
H         3.12157587       5.54471720      13.13288447         0.00000000       0.00000000       0.00000000          1
H        14.57758026       8.78326871       6.30211896         0.00000000       0.00000000       0.00000000          1
6
pbc=[F, F, F] list_num_par=6 frozen=false iter=149 energy=-0.05096020 Lattice="15.00000000 0.00000000 0.00000000 0.00000000 15.00000000 0.00000000 0.00000000 0.00000000 15.00000000" energy_frozen_part=0.00000000 Properties=species:S:1:pos:R:3:velocities:R:3:Z:I:1
H         1.07019043       4.78037680       0.25636169         0.00000000       0.00000000       0.00000000          1
H        13.49000056       7.74749421       3.11890809         0.00000000       0.00000000       0.00000000          1
H         3.79537494       4.44845304       6.67633364         0.00000000       0.00000000       0.00000000          1
H         3.08763059       6.10208591      11.83066876         0.00000000       0.00000000       0.00000000          1
H         4.11584008       9.38616331      12.89062991         0.00000000       0.00000000       0.00000000          1
H         0.88924204       1.55474139      12.11382806         0.00000000       0.00000000       0.00000000          1
6
pbc=[F, F, F] list_num_par=6 frozen=false iter=159 energy=-0.05931538 Lattice="15.00000000 0.00000000 0.00000000 0.00000000 15.00000000 0.00000000 0.00000000 0.00000000 15.00000000" energy_frozen_part=0.00000000 Properties=species:S:1:pos:R:3:velocities:R:3:Z:I:1
H         2.27016607       3.02149026       9.89395027         0.00000000       0.00000000       0.00000000          1
H        14.22692289       8.54051130      10.07562013         0.00000000       0.00000000       0.00000000          1
H        13.59160785       5.75538801       2.57650590         0.00000000       0.00000000       0.00000000          1
H        11.30638793       5.22108571      13.44295941         0.00000000       0.00000000       0.00000000          1
H         7.48827443       5.27485541      14.19547369         0.00000000       0.00000000       0.00000000          1
H         1.35046741       6.39404428       8.35458793         0.00000000       0.00000000       0.00000000          1
6
pbc=[F, F, F] list_num_par=6 frozen=false iter=169 energy=-0.06385264 Lattice="15.00000000 0.00000000 0.00000000 0.00000000 15.00000000 0.00000000 0.00000000 0.00000000 15.00000000" energy_frozen_part=0.00000000 Properties=species:S:1:pos:R:3:velocities:R:3:Z:I:1
H        10.66791456      11.08227473      11.43810060         0.00000000       0.00000000       0.00000000          1
H        11.20716430      13.19822719      13.88371902         0.00000000       0.00000000       0.00000000          1
H         2.29701204       4.31914867       5.03327359         0.00000000       0.00000000       0.00000000          1
H        13.10608535       8.26046458       3.44068952         0.00000000       0.00000000       0.00000000          1
H         4.24853521      14.67641663       0.19321854         0.00000000       0.00000000       0.00000000          1
H        11.59690029       3.72976923      10.04381881         0.00000000       0.00000000       0.00000000          1
6
pbc=[F, F, F] list_num_par=6 frozen=false iter=179 energy=-0.07005301 Lattice="15.00000000 0.00000000 0.00000000 0.00000000 15.00000000 0.00000000 0.00000000 0.00000000 15.00000000" energy_frozen_part=0.00000000 Properties=species:S:1:pos:R:3:velocities:R:3:Z:I:1
H         1.64193282      11.22707639       5.44311311         0.00000000       0.00000000       0.00000000          1
H         3.51124442       1.28228258       4.14317023         0.00000000       0.00000000       0.00000000          1
H         2.82675530      12.62034075       2.53582502         0.00000000       0.00000000       0.00000000          1
H         3.01123078       5.54616425      12.33373247         0.00000000       0.00000000       0.00000000          1
H        13.15958417       0.90903656       7.30126664         0.00000000       0.00000000       0.00000000          1
H         7.09254119       0.73522974       6.20973585         0.00000000       0.00000000       0.00000000          1
6
pbc=[F, F, F] list_num_par=6 frozen=false iter=189 energy=-0.07590112 Lattice="15.00000000 0.00000000 0.00000000 0.00000000 15.00000000 0.00000000 0.00000000 0.00000000 15.00000000" energy_frozen_part=0.00000000 Properties=species:S:1:pos:R:3:velocities:R:3:Z:I:1
H         5.06188172       1.61951217       1.74999451         0.00000000       0.00000000       0.00000000          1
H        12.74741304       1.35604713       0.24177543         0.00000000       0.00000000       0.00000000          1
H        11.14227193       9.81558497       1.98212856         0.00000000       0.00000000       0.00000000          1
H         7.31954515       1.57867948      14.58481243         0.00000000       0.00000000       0.00000000          1
H        11.25578161       0.01469099       1.91208080         0.00000000       0.00000000       0.00000000          1
H        12.34214857       0.23337166       7.40755981         0.00000000       0.00000000       0.00000000          1
6
pbc=[F, F, F] list_num_par=6 frozen=false iter=199 energy=-0.08334064 Lattice="15.00000000 0.00000000 0.00000000 0.00000000 15.00000000 0.00000000 0.00000000 0.00000000 15.00000000" energy_frozen_part=0.00000000 Properties=species:S:1:pos:R:3:velocities:R:3:Z:I:1
H        11.65357848      13.89861177       5.07506188         0.00000000       0.00000000       0.00000000          1
H         5.59492910       0.77456104       9.90480117         0.00000000       0.00000000       0.00000000          1
H        14.96968404      13.38383048       8.03435902         0.00000000       0.00000000       0.00000000          1
H         6.48789160      11.38399358       0.72495512         0.00000000       0.00000000       0.00000000          1
H         6.51598269       7.97914101       7.80166220         0.00000000       0.00000000       0.00000000          1
H         4.00490901      11.99418649       1.24233839         0.00000000       0.00000000       0.00000000          1
6
pbc=[F, F, F] list_num_par=6 frozen=false iter=209 energy=-0.08800003 Lattice="15.00000000 0.00000000 0.00000000 0.00000000 15.00000000 0.00000000 0.00000000 0.00000000 15.00000000" energy_frozen_part=0.00000000 Properties=species:S:1:pos:R:3:velocities:R:3:Z:I:1
H         0.86397760       7.00859697       4.35497317         0.00000000       0.00000000       0.00000000          1
H        14.42361349      13.21165706       5.48035904         0.00000000       0.00000000       0.00000000          1
H         3.48704085       0.71016294       7.01363925         0.00000000       0.00000000       0.00000000          1
H         1.19599803      10.16882135      12.43857660         0.00000000       0.00000000       0.00000000          1
H         3.23072918       8.39316598      14.04919519         0.00000000       0.00000000       0.00000000          1
H         0.51331176       3.19234122       9.52452383         0.00000000       0.00000000       0.00000000          1
6
pbc=[F, F, F] list_num_par=6 frozen=false iter=219 energy=-0.09214840 Lattice="15.00000000 0.00000000 0.00000000 0.00000000 15.00000000 0.00000000 0.00000000 0.00000000 15.00000000" energy_frozen_part=0.00000000 Properties=species:S:1:pos:R:3:velocities:R:3:Z:I:1
H         9.43391331       3.38199194       5.75967609         0.00000000       0.00000000       0.00000000          1
H        11.79923004      10.90866109       3.15627976         0.00000000       0.00000000       0.00000000          1
H         8.40421572      10.58647207       0.72807894         0.00000000       0.00000000       0.00000000          1
H        11.88348793      12.77506120       0.34473183         0.00000000       0.00000000       0.00000000          1
H         2.14838339       4.27047215       4.17790160         0.00000000       0.00000000       0.00000000          1
H         3.25850370      14.97110288       4.13813411         0.00000000       0.00000000       0.00000000          1
6
pbc=[F, F, F] list_num_par=6 frozen=false iter=229 energy=-0.09834429 Lattice="15.00000000 0.00000000 0.00000000 0.00000000 15.00000000 0.00000000 0.00000000 0.00000000 15.00000000" energy_frozen_part=0.00000000 Properties=species:S:1:pos:R:3:velocities:R:3:Z:I:1
H         9.35973222      14.22434071       4.94492694         0.00000000       0.00000000       0.00000000          1
H         4.29284397       5.55078689      12.55697580         0.00000000       0.00000000       0.00000000          1
H         9.68000803      14.01020760       7.91602709         0.00000000       0.00000000       0.00000000          1
H        13.54756751       2.85414657       8.84875574         0.00000000       0.00000000       0.00000000          1
H         7.30030059      12.97235854       0.86190452         0.00000000       0.00000000       0.00000000          1
H         8.57980770       1.08369039       2.62453066         0.00000000       0.00000000       0.00000000          1
6
pbc=[F, F, F] list_num_par=6 frozen=false iter=239 energy=-0.10170663 Lattice="15.00000000 0.00000000 0.00000000 0.00000000 15.00000000 0.00000000 0.00000000 0.00000000 15.00000000" energy_frozen_part=0.00000000 Properties=species:S:1:pos:R:3:velocities:R:3:Z:I:1
H         1.70728909       2.47199239      10.87932394         0.00000000       0.00000000       0.00000000          1
H         4.73202658      13.82771058       1.84831490         0.00000000       0.00000000       0.00000000          1
H        13.96050866       3.03557548      13.38544671         0.00000000       0.00000000       0.00000000          1
H         9.11615267      10.07199767       7.68521432         0.00000000       0.00000000       0.00000000          1
H         5.45407296       4.76649173       5.63320786         0.00000000       0.00000000       0.00000000          1
H         8.55260221      10.11154331       5.01633445         0.00000000       0.00000000       0.00000000          1
6
pbc=[F, F, F] list_num_par=6 frozen=false iter=249 energy=-0.10300669 Lattice="15.00000000 0.00000000 0.00000000 0.00000000 15.00000000 0.00000000 0.00000000 0.00000000 15.00000000" energy_frozen_part=0.00000000 Properties=species:S:1:pos:R:3:velocities:R:3:Z:I:1
H         7.16501383       9.32873797      12.36429393         0.00000000       0.00000000       0.00000000          1
H         5.32751309       4.83171765      10.80214343         0.00000000       0.00000000       0.00000000          1
H         9.83482847      14.10386233      14.23129696         0.00000000       0.00000000       0.00000000          1
H         9.25098906       0.38946506      11.68646111         0.00000000       0.00000000       0.00000000          1
H         2.96903792      12.89704187       1.90224561         0.00000000       0.00000000       0.00000000          1
H         8.04866276      10.01216816       9.58932969         0.00000000       0.00000000       0.00000000          1
6
pbc=[F, F, F] list_num_par=6 frozen=false iter=259 energy=-0.10621989 Lattice="15.00000000 0.00000000 0.00000000 0.00000000 15.00000000 0.00000000 0.00000000 0.00000000 15.00000000" energy_frozen_part=0.00000000 Properties=species:S:1:pos:R:3:velocities:R:3:Z:I:1
H         8.43313296       4.49633635      10.95945647         0.00000000       0.00000000       0.00000000          1
H         5.51556179       6.33873149      14.62286315         0.00000000       0.00000000       0.00000000          1
H         1.87653982       0.36753863      10.03168020         0.00000000       0.00000000       0.00000000          1
H         3.96587665       0.90274247       8.36367880         0.00000000       0.00000000       0.00000000          1
H        10.62221662      10.72380145      14.83042691         0.00000000       0.00000000       0.00000000          1
H         3.53935524      14.20433324      14.86935360         0.00000000       0.00000000       0.00000000          1
6
pbc=[F, F, F] list_num_par=6 frozen=false iter=269 energy=-0.10813335 Lattice="15.00000000 0.00000000 0.00000000 0.00000000 15.00000000 0.00000000 0.00000000 0.00000000 15.00000000" energy_frozen_part=0.00000000 Properties=species:S:1:pos:R:3:velocities:R:3:Z:I:1
H        12.91281743       7.04069521      10.56184701         0.00000000       0.00000000       0.00000000          1
H        11.89598210       7.36980616      14.59917183         0.00000000       0.00000000       0.00000000          1
H        11.92242698      12.20794069       5.67463603         0.00000000       0.00000000       0.00000000          1
H         4.22766022      11.75291211       0.21637230         0.00000000       0.00000000       0.00000000          1
H         7.96516739      11.56001537       8.32126700         0.00000000       0.00000000       0.00000000          1
H        12.26444529      12.84804358       3.13621870         0.00000000       0.00000000       0.00000000          1
6
pbc=[F, F, F] list_num_par=6 frozen=false iter=279 energy=-0.11333407 Lattice="15.00000000 0.00000000 0.00000000 0.00000000 15.00000000 0.00000000 0.00000000 0.00000000 15.00000000" energy_frozen_part=0.00000000 Properties=species:S:1:pos:R:3:velocities:R:3:Z:I:1
H         5.93551910       6.37857331       2.48266026         0.00000000       0.00000000       0.00000000          1
H        11.84985840       2.41637238       1.14735373         0.00000000       0.00000000       0.00000000          1
H         5.88688231       5.89072490       5.94317792         0.00000000       0.00000000       0.00000000          1
H         9.25553857       5.64458406       6.64773927         0.00000000       0.00000000       0.00000000          1
H         4.71695683       9.96666122       7.84481998         0.00000000       0.00000000       0.00000000          1
H         1.64247739       1.94809835      11.52618541         0.00000000       0.00000000       0.00000000          1
6
pbc=[F, F, F] list_num_par=6 frozen=false iter=289 energy=-0.11608014 Lattice="15.00000000 0.00000000 0.00000000 0.00000000 15.00000000 0.00000000 0.00000000 0.00000000 15.00000000" energy_frozen_part=0.00000000 Properties=species:S:1:pos:R:3:velocities:R:3:Z:I:1
H         8.05584123       5.66108077      10.03833583         0.00000000       0.00000000       0.00000000          1
H        12.94452764      11.04520389       6.74740725         0.00000000       0.00000000       0.00000000          1
H        11.78023388       6.53628194       6.86744479         0.00000000       0.00000000       0.00000000          1
H         3.20450819      14.84352803      11.20568122         0.00000000       0.00000000       0.00000000          1
H         7.29260081       4.65392044       7.37344913         0.00000000       0.00000000       0.00000000          1
H         0.96975839       8.58087542       0.50416482         0.00000000       0.00000000       0.00000000          1
6
pbc=[F, F, F] list_num_par=6 frozen=false iter=299 energy=-0.11880389 Lattice="15.00000000 0.00000000 0.00000000 0.00000000 15.00000000 0.00000000 0.00000000 0.00000000 15.00000000" energy_frozen_part=0.00000000 Properties=species:S:1:pos:R:3:velocities:R:3:Z:I:1
H         2.16399591       6.41114510       7.49733563         0.00000000       0.00000000       0.00000000          1
H         4.12177706       7.80008632       8.74202233         0.00000000       0.00000000       0.00000000          1
H         1.37370714       0.45387847      12.44380325         0.00000000       0.00000000       0.00000000          1
H         2.09948629      11.15314829       7.07491082         0.00000000       0.00000000       0.00000000          1
H        11.70674090       5.58378262      14.79954953         0.00000000       0.00000000       0.00000000          1
H        10.76680475      10.56494153       7.85444377         0.00000000       0.00000000       0.00000000          1
6
pbc=[F, F, F] list_num_par=6 frozen=false iter=309 energy=-0.12126695 Lattice="15.00000000 0.00000000 0.00000000 0.00000000 15.00000000 0.00000000 0.00000000 0.00000000 15.00000000" energy_frozen_part=0.00000000 Properties=species:S:1:pos:R:3:velocities:R:3:Z:I:1
H        10.87814208       5.71750056      13.24873029         0.00000000       0.00000000       0.00000000          1
H         3.69451202       3.20836502       6.66780871         0.00000000       0.00000000       0.00000000          1