6
pbc=[F, F, F] list_num_par=6 energy=7.68693085 iter=9 frozen=false Lattice="15.00000000 0.00000000 0.00000000 0.00000000 15.00000000 0.00000000 0.00000000 0.00000000 15.00000000" energy_frozen_part=0.00000000 Properties=species:S:1:pos:R:3:velocities:R:3:Z:I:1
H         0.93450889      10.50195726      14.39789610         0.00000000       0.00000000       0.00000000          1
H        14.68345757      13.75122983      10.41588850         0.00000000       0.00000000       0.00000000          1
H        12.86192034       2.37357938       9.60684475         0.00000000       0.00000000       0.00000000          1
H         9.10214715       3.62512417       5.65090797         0.00000000       0.00000000       0.00000000          1
H         0.10201021       2.94696853      10.24070156         0.00000000       0.00000000       0.00000000          1
H         0.54879458       8.71191101      14.96656437         0.00000000       0.00000000       0.00000000          1
6
pbc=[F, F, F] list_num_par=6 energy=0.52957883 iter=19 frozen=false Lattice="15.00000000 0.00000000 0.00000000 0.00000000 15.00000000 0.00000000 0.00000000 0.00000000 15.00000000" energy_frozen_part=0.00000000 Properties=species:S:1:pos:R:3:velocities:R:3:Z:I:1
H        11.48210606       9.16885365       9.16663379         0.00000000       0.00000000       0.00000000          1
H         1.28787102       8.05991704      12.79541120         0.00000000       0.00000000       0.00000000          1
H         7.57860338       8.20053575       0.25045891         0.00000000       0.00000000       0.00000000          1
H         4.51836760      12.84597746       9.27800256         0.00000000       0.00000000       0.00000000          1
H         6.07607707       8.80992633       1.84760422         0.00000000       0.00000000       0.00000000          1
H         1.12761684       4.26734385       6.43736287         0.00000000       0.00000000       0.00000000          1
6
pbc=[F, F, F] list_num_par=6 energy=-0.00450576 iter=29 frozen=false Lattice="15.00000000 0.00000000 0.00000000 0.00000000 15.00000000 0.00000000 0.00000000 0.00000000 15.00000000" energy_frozen_part=0.00000000 Properties=species:S:1:pos:R:3:velocities:R:3:Z:I:1
H         1.19473290       7.70928051       8.36673366         0.00000000       0.00000000       0.00000000          1
H         4.95701297       8.55261369      14.19673642         0.00000000       0.00000000       0.00000000          1
H         8.44966060      10.30625981       6.21712816         0.00000000       0.00000000       0.00000000          1
H        14.21903418       8.69543128       5.29320140         0.00000000       0.00000000       0.00000000          1
H         3.16849752       2.28343868      14.52938100         0.00000000       0.00000000       0.00000000          1
H         9.20855956       1.14159879       8.39025755         0.00000000       0.00000000       0.00000000          1
6
pbc=[F, F, F] list_num_par=6 energy=-0.00804358 iter=39 frozen=false Lattice="15.00000000 0.00000000 0.00000000 0.00000000 15.00000000 0.00000000 0.00000000 0.00000000 15.00000000" energy_frozen_part=0.00000000 Properties=species:S:1:pos:R:3:velocities:R:3:Z:I:1
H         2.94986111       0.89942828       1.11544613         0.00000000       0.00000000       0.00000000          1
H         2.15946889      10.24601296      10.15623917         0.00000000       0.00000000       0.00000000          1
H         0.29873388      12.20993778      14.08927554         0.00000000       0.00000000       0.00000000          1
H         8.52449606       2.39536217      14.91323432         0.00000000       0.00000000       0.00000000          1
H        12.34986294      10.83580597       6.64493420         0.00000000       0.00000000       0.00000000          1
H        14.28661205       2.16825741       4.09312151         0.00000000       0.00000000       0.00000000          1
6
pbc=[F, F, F] list_num_par=6 energy=-0.01205622 iter=49 frozen=false Lattice="15.00000000 0.00000000 0.00000000 0.00000000 15.00000000 0.00000000 0.00000000 0.00000000 15.00000000" energy_frozen_part=0.00000000 Properties=species:S:1:pos:R:3:velocities:R:3:Z:I:1
H         3.26187058       8.19613533      11.98725353         0.00000000       0.00000000       0.00000000          1
H         6.53294029      13.91565170       3.70555898         0.00000000       0.00000000       0.00000000          1
H         0.54088320       2.46422688       5.87588322         0.00000000       0.00000000       0.00000000          1
H         7.92564961       8.15338393       4.30244134         0.00000000       0.00000000       0.00000000          1
H        12.06533233       2.76363680      12.24892635         0.00000000       0.00000000       0.00000000          1
H         2.52916016       3.69193317      12.92179819         0.00000000       0.00000000       0.00000000          1
6
pbc=[F, F, F] list_num_par=6 energy=-0.01628491 iter=59 frozen=false Lattice="15.00000000 0.00000000 0.00000000 0.00000000 15.00000000 0.00000000 0.00000000 0.00000000 15.00000000" energy_frozen_part=0.00000000 Properties=species:S:1:pos:R:3:velocities:R:3:Z:I:1
H        14.00229179       2.66161223       3.80604932         0.00000000       0.00000000       0.00000000          1
H         9.53903573       5.51970972       5.30043119         0.00000000       0.00000000       0.00000000          1
H         5.53983868       4.11892000      14.41152398         0.00000000       0.00000000       0.00000000          1
H        11.75293428      14.41661285      12.15633523         0.00000000       0.00000000       0.00000000          1
H         7.64618053      13.35119504       3.67919161         0.00000000       0.00000000       0.00000000          1
H        11.38537564       8.94629545       7.61139503         0.00000000       0.00000000       0.00000000          1
6
pbc=[F, F, F] list_num_par=6 energy=-0.02030176 iter=69 frozen=false Lattice="15.00000000 0.00000000 0.00000000 0.00000000 15.00000000 0.00000000 0.00000000 0.00000000 15.00000000" energy_frozen_part=0.00000000 Properties=species:S:1:pos:R:3:velocities:R:3:Z:I:1
H         0.14246377       4.41425463       1.26253222         0.00000000       0.00000000       0.00000000          1
H         7.37567868       4.87340326      14.26682247         0.00000000       0.00000000       0.00000000          1
H         8.07852254      12.74166402      14.75979183         0.00000000       0.00000000       0.00000000          1
H         3.32735590       2.00100511       9.87813846         0.00000000       0.00000000       0.00000000          1
H         6.35552478       4.34037829       8.08348292         0.00000000       0.00000000       0.00000000          1
H         2.13476925      10.09226517       9.43021910         0.00000000       0.00000000       0.00000000          1
6
pbc=[F, F, F] list_num_par=6 energy=-0.02432495 iter=79 frozen=false Lattice="15.00000000 0.00000000 0.00000000 0.00000000 15.00000000 0.00000000 0.00000000 0.00000000 15.00000000" energy_frozen_part=0.00000000 Properties=species:S:1:pos:R:3:velocities:R:3:Z:I:1
H        13.32673189       9.99534592       3.03898487         0.00000000       0.00000000       0.00000000          1
H         3.73469504       3.54429538       8.01842418         0.00000000       0.00000000       0.00000000          1
H         6.48091639      14.98023358       3.46034177         0.00000000       0.00000000       0.00000000          1
H         7.87689171       5.31155255       5.38972312         0.00000000       0.00000000       0.00000000          1
H         0.12781889       0.15571334       9.68165156         0.00000000       0.00000000       0.00000000          1
H        12.24446374      13.95311859       1.42436245         0.00000000       0.00000000       0.00000000          1
6
pbc=[F, F, F] list_num_par=6 energy=-0.02898257 iter=89 frozen=false Lattice="15.00000000 0.00000000 0.00000000 0.00000000 15.00000000 0.00000000 0.00000000 0.00000000 15.00000000" energy_frozen_part=0.00000000 Properties=species:S:1:pos:R:3:velocities:R:3:Z:I:1
H         7.56628532       6.21190636      14.10613912         0.00000000       0.00000000       0.00000000          1
H        14.04484917       3.89681458       7.98325076         0.00000000       0.00000000       0.00000000          1
H         4.68419246       3.88537450       9.32074098         0.00000000       0.00000000       0.00000000          1
H         1.93419573       1.94161267       7.22108555         0.00000000       0.00000000       0.00000000          1
H        12.26143347       5.32541479       2.36201766         0.00000000       0.00000000       0.00000000          1
H         8.11912643      10.22068708       8.81176484         0.00000000       0.00000000       0.00000000          1
6
pbc=[F, F, F] list_num_par=6 energy=-0.03284272 iter=99 frozen=false Lattice="15.00000000 0.00000000 0.00000000 0.00000000 15.00000000 0.00000000 0.00000000 0.00000000 15.00000000" energy_frozen_part=0.00000000 Properties=species:S:1:pos:R:3:velocities:R:3:Z:I:1
H        12.66064097      12.60576244       1.03973460         0.00000000       0.00000000       0.00000000          1
H        10.56627640      11.80282863       4.02676291         0.00000000       0.00000000       0.00000000          1
H        14.64307887       1.46004231       7.02890233         0.00000000       0.00000000       0.00000000          1
H         1.19254612      14.15080886       9.78809550         0.00000000       0.00000000       0.00000000          1
H         3.60084052       1.86953130       9.11155444         0.00000000       0.00000000       0.00000000          1
H         2.50520226      10.82409641       1.38054523         0.00000000       0.00000000       0.00000000          1
6
pbc=[F, F, F] list_num_par=6 energy=-0.03610521 iter=109 frozen=false Lattice="15.00000000 0.00000000 0.00000000 0.00000000 15.00000000 0.00000000 0.00000000 0.00000000 15.00000000" energy_frozen_part=0.00000000 Properties=species:S:1:pos:R:3:velocities:R:3:Z:I:1
H        10.65404728      10.23380279       4.97661636         0.00000000       0.00000000       0.00000000          1
H         5.57986428      12.04295146       4.43612351         0.00000000       0.00000000       0.00000000          1
H         6.40128530      14.10000685      10.99003099         0.00000000       0.00000000       0.00000000          1
H         8.75232146       5.34855553       7.79441415         0.00000000       0.00000000       0.00000000          1
H        14.80289914       1.01755719       4.13946303         0.00000000       0.00000000       0.00000000          1
H         6.08456608       3.03035149       9.24875348         0.00000000       0.00000000       0.00000000          1
6
pbc=[F, F, F] list_num_par=6 energy=-0.03935413 iter=119 frozen=false Lattice="15.00000000 0.00000000 0.00000000 0.00000000 15.00000000 0.00000000 0.00000000 0.00000000 15.00000000" energy_frozen_part=0.00000000 Properties=species:S:1:pos:R:3:velocities:R:3:Z:I:1
H         0.73483033       2.38600582       2.73353261         0.00000000       0.00000000       0.00000000          1
H        13.25455038       5.34928220      10.14182973         0.00000000       0.00000000       0.00000000          1
H         7.04220387       5.75522482       9.31506626         0.00000000       0.00000000       0.00000000          1
H         4.25137326      12.92155966      14.04119865         0.00000000       0.00000000       0.00000000          1
H        14.59274319       2.57058558       6.78664281         0.00000000       0.00000000       0.00000000          1
H         3.78959085       2.94391993       5.11968285         0.00000000       0.00000000       0.00000000          1
6
pbc=[F, F, F] list_num_par=6 energy=-0.04306316 iter=129 frozen=false Lattice="15.00000000 0.00000000 0.00000000 0.00000000 15.00000000 0.00000000 0.00000000 0.00000000 15.00000000" energy_frozen_part=0.00000000 Properties=species:S:1:pos:R:3:velocities:R:3:Z:I:1
H         2.49343550       1.82233033       8.46410455         0.00000000       0.00000000       0.00000000          1
H         1.56793880       4.26342921       0.33804712         0.00000000       0.00000000       0.00000000          1
H        12.84251365       2.27175269      11.76160869         0.00000000       0.00000000       0.00000000          1
H         2.57426931       1.82265927       3.95732410         0.00000000       0.00000000       0.00000000          1
H        13.25979330       0.50455751       6.92586755         0.00000000       0.00000000       0.00000000          1
H        11.70828485       5.22951687      14.64830680         0.00000000       0.00000000       0.00000000          1
6
pbc=[F, F, F] list_num_par=6 energy=-0.04850160 iter=139 frozen=false Lattice="15.00000000 0.00000000 0.00000000 0.00000000 15.00000000 0.00000000 0.00000000 0.00000000 15.00000000" energy_frozen_part=0.00000000 Properties=species:S:1:pos:R:3:velocities:R:3:Z:I:1
H        13.67010643      10.95646380       3.13254526         0.00000000       0.00000000       0.00000000          1
H         3.90890055       3.06722950       8.13123382         0.00000000       0.00000000       0.00000000          1
H         7.25883954      14.26706467       4.22117838         0.00000000       0.00000000       0.00000000          1
H         8.35373681       4.65632983       5.15928196         0.00000000       0.00000000       0.00000000          1
H         0.27315259       0.75660742      10.03201414         0.00000000       0.00000000       0.00000000          1
H        12.28904700      13.89205078       1.32189726         0.00000000       0.00000000       0.00000000          1
6
pbc=[F, F, F] list_num_par=6 energy=-0.05464701 iter=149 frozen=false Lattice="15.00000000 0.00000000 0.00000000 0.00000000 15.00000000 0.00000000 0.00000000 0.00000000 15.00000000" energy_frozen_part=0.00000000 Properties=species:S:1:pos:R:3:velocities:R:3:Z:I:1
H        10.94966428       2.49475181      11.54792388         0.00000000       0.00000000       0.00000000          1
H         4.38584250       7.85947495      14.14085673         0.00000000       0.00000000       0.00000000          1
H         0.29219198       2.09953837       2.86340263         0.00000000       0.00000000       0.00000000          1
H         8.55412339      10.38672111       0.89511773         0.00000000       0.00000000       0.00000000          1
H         9.35048475       4.49333959      11.46302262         0.00000000       0.00000000       0.00000000          1
H        11.40928606       1.63458293       6.49380961         0.00000000       0.00000000       0.00000000          1
6
pbc=[F, F, F] list_num_par=6 energy=-0.06242571 iter=159 frozen=false Lattice="15.00000000 0.00000000 0.00000000 0.00000000 15.00000000 0.00000000 0.00000000 0.00000000 15.00000000" energy_frozen_part=0.00000000 Properties=species:S:1:pos:R:3:velocities:R:3:Z:I:1
H        14.23544359       7.22479189       5.13988356         0.00000000       0.00000000       0.00000000          1
H        12.25738496       8.13536224       1.20665692         0.00000000       0.00000000       0.00000000          1
H         4.61999556       4.27780057       4.68353651         0.00000000       0.00000000       0.00000000          1
H         4.22980654       7.58298642       9.50091185         0.00000000       0.00000000       0.00000000          1
H         8.15610991       3.66437995       4.23553064         0.00000000       0.00000000       0.00000000          1
H        13.86851658      12.70713859       0.87282473         0.00000000       0.00000000       0.00000000          1
6
pbc=[F, F, F] list_num_par=6 energy=-0.07021317 iter=169 frozen=false Lattice="15.00000000 0.00000000 0.00000000 0.00000000 15.00000000 0.00000000 0.00000000 0.00000000 15.00000000" energy_frozen_part=0.00000000 Properties=species:S:1:pos:R:3:velocities:R:3:Z:I:1
H         0.00143439       6.10287818       9.60078307         0.00000000       0.00000000       0.00000000          1
H         3.10450178       7.00664452       2.80601308         0.00000000       0.00000000       0.00000000          1
H         9.09109098       0.28162901       5.63142115         0.00000000       0.00000000       0.00000000          1
H         1.24443034       3.14254697       3.58019662         0.00000000       0.00000000       0.00000000          1
H        13.21509806       1.37604619       8.35602853         0.00000000       0.00000000       0.00000000          1
H         9.08079352       1.29831285       9.21597133         0.00000000       0.00000000       0.00000000          1
6
pbc=[F, F, F] list_num_par=6 energy=-0.07270764 iter=179 frozen=false Lattice="15.00000000 0.00000000 0.00000000 0.00000000 15.00000000 0.00000000 0.00000000 0.00000000 15.00000000" energy_frozen_part=0.00000000 Properties=species:S:1:pos:R:3:velocities:R:3:Z:I:1
H         3.23607147      12.30059539       2.60425728         0.00000000       0.00000000       0.00000000          1
H        12.89231998      14.09899298       4.96113623         0.00000000       0.00000000       0.00000000          1
H         7.31630237       5.65585025       1.28151822         0.00000000       0.00000000       0.00000000          1
H        10.78966179       3.15258377       5.41816276         0.00000000       0.00000000       0.00000000          1
H         1.43343292       1.64870003       2.98561052         0.00000000       0.00000000       0.00000000          1
H         6.41817363       2.52679109       1.72062734         0.00000000       0.00000000       0.00000000          1
6
pbc=[F, F, F] list_num_par=6 energy=-0.07788231 iter=189 frozen=false Lattice="15.00000000 0.00000000 0.00000000 0.00000000 15.00000000 0.00000000 0.00000000 0.00000000 15.00000000" energy_frozen_part=0.00000000 Properties=species:S:1:pos:R:3:velocities:R:3:Z:I:1
H         3.63738649      10.06042361       3.98493906         0.00000000       0.00000000       0.00000000          1
H        12.34370756      12.84963613       8.54119761         0.00000000       0.00000000       0.00000000          1
H         5.59351624       4.13368152       0.85344062         0.00000000       0.00000000       0.00000000          1
H        14.01212633       7.14993382       3.68491284         0.00000000       0.00000000       0.00000000          1
H         2.36974459       0.91333337       4.59027362         0.00000000       0.00000000       0.00000000          1
H         7.18264763       3.39574507       3.52895272         0.00000000       0.00000000       0.00000000          1
6
pbc=[F, F, F] list_num_par=6 energy=-0.08393296 iter=199 frozen=false Lattice="15.00000000 0.00000000 0.00000000 0.00000000 15.00000000 0.00000000 0.00000000 0.00000000 15.00000000" energy_frozen_part=0.00000000 Properties=species:S:1:pos:R:3:velocities:R:3:Z:I:1
H         3.10672730      10.93383997       7.32047458         0.00000000       0.00000000       0.00000000          1
H         4.36299903       1.38013944       4.15166873         0.00000000       0.00000000       0.00000000          1
H        10.64761971      10.68788125      13.45982623         0.00000000       0.00000000       0.00000000          1
H         3.98087763       0.96029240       7.19731337         0.00000000       0.00000000       0.00000000          1
H         0.55245688      13.78873203      11.14191951         0.00000000       0.00000000       0.00000000          1
H        10.56277504       6.90104901       3.92611026         0.00000000       0.00000000       0.00000000          1
6
pbc=[F, F, F] list_num_par=6 energy=-0.08894125 iter=209 frozen=false Lattice="15.00000000 0.00000000 0.00000000 0.00000000 15.00000000 0.00000000 0.00000000 0.00000000 15.00000000" energy_frozen_part=0.00000000 Properties=species:S:1:pos:R:3:velocities:R:3:Z:I:1
H         4.79633717      10.91990728      10.70193268         0.00000000       0.00000000       0.00000000          1
H         0.44007405       3.49436274       2.77689260         0.00000000       0.00000000       0.00000000          1
H         6.46447480       0.75924578      12.63839637         0.00000000       0.00000000       0.00000000          1
H         7.90985790       3.76326671       8.19003075         0.00000000       0.00000000       0.00000000          1
H        11.33895365       7.00721225      12.59438591         0.00000000       0.00000000       0.00000000          1
H         7.41258404       6.74616741       7.50890172         0.00000000       0.00000000       0.00000000          1
6
pbc=[F, F, F] list_num_par=6 energy=-0.09322964 iter=219 frozen=false Lattice="15.00000000 0.00000000 0.00000000 0.00000000 15.00000000 0.00000000 0.00000000 0.00000000 15.00000000" energy_frozen_part=0.00000000 Properties=species:S:1:pos:R:3:velocities:R:3:Z:I:1
H        12.88263139      14.10554389       2.40094049         0.00000000       0.00000000       0.00000000          1
H         4.13360958      14.63020410       9.05442614         0.00000000       0.00000000       0.00000000          1
H        10.08413899       1.31784328       8.16925718         0.00000000       0.00000000       0.00000000          1
H         8.70907269       6.53511643       2.01858313         0.00000000       0.00000000       0.00000000          1
H        10.25468076       0.07431124      14.67719614         0.00000000       0.00000000       0.00000000          1
H        11.72756958       1.37502174       5.68826002         0.00000000       0.00000000       0.00000000          1
6
pbc=[F, F, F] list_num_par=6 energy=-0.09720165 iter=229 frozen=false Lattice="15.00000000 0.00000000 0.00000000 0.00000000 15.00000000 0.00000000 0.00000000 0.00000000 15.00000000" energy_frozen_part=0.00000000 Properties=species:S:1:pos:R:3:velocities:R:3:Z:I:1
H        13.27517814      11.52129202      13.33389865         0.00000000       0.00000000       0.00000000          1
H         7.82035888       2.70017600       6.37768927         0.00000000       0.00000000       0.00000000          1
H        13.28310678       1.81752800      13.49429732         0.00000000       0.00000000       0.00000000          1
H        13.70822331      12.24033798      10.82103529         0.00000000       0.00000000       0.00000000          1
H         2.01904965      13.33498621       7.36392347         0.00000000       0.00000000       0.00000000          1
H         4.55734110       2.73743375       9.22501338         0.00000000       0.00000000       0.00000000          1
6
pbc=[F, F, F] list_num_par=6 energy=-0.09900146 iter=239 frozen=false Lattice="15.00000000 0.00000000 0.00000000 0.00000000 15.00000000 0.00000000 0.00000000 0.00000000 15.00000000" energy_frozen_part=0.00000000 Properties=species:S:1:pos:R:3:velocities:R:3:Z:I:1
H        14.28816602       8.80424462      12.98317962         0.00000000       0.00000000       0.00000000          1
H         3.57740203       0.28495482      13.22987276         0.00000000       0.00000000       0.00000000          1
H        12.75393093      10.36011456       6.51133770         0.00000000       0.00000000       0.00000000          1
H         0.50824137      12.24464044      10.41596965         0.00000000       0.00000000       0.00000000          1
H         0.64786610      13.84289472      12.79997234         0.00000000       0.00000000       0.00000000          1
H        14.04038108       0.50957742       0.32625787         0.00000000       0.00000000       0.00000000          1
6
pbc=[F, F, F] list_num_par=6 energy=-0.10158982 iter=249 frozen=false Lattice="15.00000000 0.00000000 0.00000000 0.00000000 15.00000000 0.00000000 0.00000000 0.00000000 15.00000000" energy_frozen_part=0.00000000 Properties=species:S:1:pos:R:3:velocities:R:3:Z:I:1
H        11.94573236       4.62021604      11.42140406         0.00000000       0.00000000       0.00000000          1
H         4.20750994      14.82357045       9.31233852         0.00000000       0.00000000       0.00000000          1
H         8.70653046       6.67732060       4.70411545         0.00000000       0.00000000       0.00000000          1
H         6.55925267       6.66490466       2.42724604         0.00000000       0.00000000       0.00000000          1
H         9.78353971      13.40851757      14.40102459         0.00000000       0.00000000       0.00000000          1
H         3.15070987      11.63377286      11.41193485         0.00000000       0.00000000       0.00000000          1
6
pbc=[F, F, F] list_num_par=6 energy=-0.10396839 iter=259 frozen=false Lattice="15.00000000 0.00000000 0.00000000 0.00000000 15.00000000 0.00000000 0.00000000 0.00000000 15.00000000" energy_frozen_part=0.00000000 Properties=species:S:1:pos:R:3:velocities:R:3:Z:I:1
H         9.50774957       9.59696450       4.85476217         0.00000000       0.00000000       0.00000000          1
H         5.10654025       3.04339234       9.54485769         0.00000000       0.00000000       0.00000000          1
H         1.09770037      12.59132854       1.11785195         0.00000000       0.00000000       0.00000000          1
H        13.76995792      12.73207558       3.76521320         0.00000000       0.00000000       0.00000000          1
H         4.58659917       2.09436041       6.81219530         0.00000000       0.00000000       0.00000000          1
H         5.43466084       8.44165016       9.51018331         0.00000000       0.00000000       0.00000000          1
6
pbc=[F, F, F] list_num_par=6 energy=-0.10569055 iter=269 frozen=false Lattice="15.00000000 0.00000000 0.00000000 0.00000000 15.00000000 0.00000000 0.00000000 0.00000000 15.00000000" energy_frozen_part=0.00000000 Properties=species:S:1:pos:R:3:velocities:R:3:Z:I:1
H         2.19049381       2.43023628       6.28438089         0.00000000       0.00000000       0.00000000          1
H         3.95360565       6.39963634       6.51140161         0.00000000       0.00000000       0.00000000          1
H         3.38633218       1.80659738       9.02780740         0.00000000       0.00000000       0.00000000          1
H         7.50766281       3.65974300      12.43447281         0.00000000       0.00000000       0.00000000          1
H        14.18169815       1.34034055       7.21479642         0.00000000       0.00000000       0.00000000          1
H         6.59917724      12.92706285      14.57346667         0.00000000       0.00000000       0.00000000          1
6
pbc=[F, F, F] list_num_par=6 energy=-0.10708310 iter=279 frozen=false Lattice="15.00000000 0.00000000 0.00000000 0.00000000 15.00000000 0.00000000 0.00000000 0.00000000 15.00000000" energy_frozen_part=0.00000000 Properties=species:S:1:pos:R:3:velocities:R:3:Z:I:1
H         4.47123467       4.74029855      10.91087928         0.00000000       0.00000000       0.00000000          1
H         7.75113098      12.04143581       9.96318382         0.00000000       0.00000000       0.00000000          1
H         9.46562217      12.89148018       7.66386803         0.00000000       0.00000000       0.00000000          1
H         8.46962173      12.17104740       2.07694025         0.00000000       0.00000000       0.00000000          1
H        13.19980307       7.96357157       2.79210885         0.00000000       0.00000000       0.00000000          1
H         8.50142949       7.79355569       5.24326354         0.00000000       0.00000000       0.00000000          1
6
pbc=[F, F, F] list_num_par=6 energy=-0.10823295 iter=289 frozen=false Lattice="15.00000000 0.00000000 0.00000000 0.00000000 15.00000000 0.00000000 0.00000000 0.00000000 15.00000000" energy_frozen_part=0.00000000 Properties=species:S:1:pos:R:3:velocities:R:3:Z:I:1
H        10.95837472      12.50675279       8.29695274         0.00000000       0.00000000       0.00000000          1
H        10.32702538       4.66934078       2.70805177         0.00000000       0.00000000       0.00000000          1
H        11.09098657       2.35773460       7.08798130         0.00000000       0.00000000       0.00000000          1
H         1.30375916       1.97349000       1.06096697         0.00000000       0.00000000       0.00000000          1
H        10.51301683       1.12787793       9.58797858         0.00000000       0.00000000       0.00000000          1
H        14.91774256       5.08514000      11.75068945         0.00000000       0.00000000       0.00000000          1
6
pbc=[F, F, F] list_num_par=6 energy=-0.11158647 iter=299 frozen=false Lattice="15.00000000 0.00000000 0.00000000 0.00000000 15.00000000 0.00000000 0.00000000 0.00000000 15.00000000" energy_frozen_part=0.00000000 Properties=species:S:1:pos:R:3:velocities:R:3:Z:I:1
H         4.80496910      11.87560960       8.71679867         0.00000000       0.00000000       0.00000000          1
H        11.56508072       5.44075080       2.86645223         0.00000000       0.00000000       0.00000000          1
H        12.15185359       2.62094797       4.18321533         0.00000000       0.00000000       0.00000000          1
H        14.99595492       2.33874634      12.34911515         0.00000000       0.00000000       0.00000000          1
H         1.49776133      13.96561360       9.21815423         0.00000000       0.00000000       0.00000000          1
H         7.72001761      14.87815322       7.35491389         0.00000000       0.00000000       0.00000000          1
6
pbc=[F, F, F] list_num_par=6 energy=-0.11475243 iter=309 frozen=false Lattice="15.00000000 0.00000000 0.00000000 0.00000000 15.00000000 0.00000000 0.00000000 0.00000000 15.00000000" energy_frozen_part=0.00000000 Properties=species:S:1:pos:R:3:velocities:R:3:Z:I:1
H         8.66698447      14.24718970      14.01457957         0.00000000       0.00000000       0.00000000          1
H        10.86761166      11.38498204      12.34480189         0.00000000       0.00000000       0.00000000          1