6
pbc=[F, F, F] list_num_par=6 frozen=false iter=20000 energy=-1.26974174 Lattice="15.00000000 0.00000000 0.00000000 0.00000000 15.00000000 0.00000000 0.00000000 0.00000000 15.00000000" energy_frozen_part=0.00000000 Properties=species:S:1:pos:R:3:velocities:R:3:Z:I:1
H         8.04020266      14.61600769      13.56906205         0.00000000       0.00000000       0.00000000          1
H         8.42774374      12.27465066      12.09524990         0.00000000       0.00000000       0.00000000          1
H         8.05504653      12.13890176      14.86056586         0.00000000       0.00000000       0.00000000          1
H         5.66830416      13.56875762      14.60908350         0.00000000       0.00000000       0.00000000          1
H         6.05585190      11.22739525      13.13527279         0.00000000       0.00000000       0.00000000          1
H         6.04099892      13.70450505      11.84376607         0.00000000       0.00000000       0.00000000          1
6
pbc=[F, F, F] list_num_par=6 frozen=false iter=20000 energy=-1.26974174 Lattice="15.00000000 0.00000000 0.00000000 0.00000000 15.00000000 0.00000000 0.00000000 0.00000000 15.00000000" energy_frozen_part=0.00000000 Properties=species:S:1:pos:R:3:velocities:R:3:Z:I:1
H         8.04017186      14.61601302      13.56907456         0.00000000       0.00000000       0.00000000          1
H         8.42775994      12.27464974      12.09527681         0.00000000       0.00000000       0.00000000          1
H         8.05505794      12.13890498      14.86059216         0.00000000       0.00000000       0.00000000          1
H         5.66829461      13.56872466      14.60910471         0.00000000       0.00000000       0.00000000          1
H         6.05587379      11.22736477      13.13529731         0.00000000       0.00000000       0.00000000          1
H         6.04098929      13.70446418      11.84378779         0.00000000       0.00000000       0.00000000          1
6
pbc=[F, F, F] list_num_par=6 frozen=false iter=20000 energy=-1.26974174 Lattice="15.00000000 0.00000000 0.00000000 0.00000000 15.00000000 0.00000000 0.00000000 0.00000000 15.00000000" energy_frozen_part=0.00000000 Properties=species:S:1:pos:R:3:velocities:R:3:Z:I:1
H         7.81069581      14.83054724      13.39365845         0.00000000       0.00000000       0.00000000          1
H         8.24179324      12.44004277      12.01384073         0.00000000       0.00000000       0.00000000          1
H         8.17915731      12.44900438      14.80674201         0.00000000       0.00000000       0.00000000          1
H         5.66359882      13.66251583      14.74642127         0.00000000       0.00000000       0.00000000          1
H         6.09469916      11.27200728      13.36660472         0.00000000       0.00000000       0.00000000          1
H         5.72623269      13.65354649      11.95352921         0.00000000       0.00000000       0.00000000          1
6
pbc=[F, F, F] list_num_par=6 frozen=false iter=20000 energy=-1.26974174 Lattice="15.00000000 0.00000000 0.00000000 0.00000000 15.00000000 0.00000000 0.00000000 0.00000000 15.00000000" energy_frozen_part=0.00000000 Properties=species:S:1:pos:R:3:velocities:R:3:Z:I:1
H         8.04024518      14.61594823      13.56906963         0.00000000       0.00000000       0.00000000          1
H         8.42770742      12.27461222      12.09519766         0.00000000       0.00000000       0.00000000          1
H         8.05505801      12.13880450      14.86051568         0.00000000       0.00000000       0.00000000          1
H         5.66834491      13.56872361      14.60910821         0.00000000       0.00000000       0.00000000          1
H         6.05579980      11.22739043      13.13523251         0.00000000       0.00000000       0.00000000          1
H         6.04099136      13.70452782      11.84378501         0.00000000       0.00000000       0.00000000          1
6
pbc=[F, F, F] list_num_par=6 frozen=false iter=20000 energy=-1.26974174 Lattice="15.00000000 0.00000000 0.00000000 0.00000000 15.00000000 0.00000000 0.00000000 0.00000000 15.00000000" energy_frozen_part=0.00000000 Properties=species:S:1:pos:R:3:velocities:R:3:Z:I:1
H         8.04022415      14.61595654      13.56908818         0.00000000       0.00000000       0.00000000          1
H         8.42770086      12.27463230      12.09519415         0.00000000       0.00000000       0.00000000          1
H         8.05504253      12.13879612      14.86050615         0.00000000       0.00000000       0.00000000          1
H         5.66832750      13.56871173      14.60910791         0.00000000       0.00000000       0.00000000          1
H         6.05579515      11.22739290      13.13520544         0.00000000       0.00000000       0.00000000          1
H         6.04098471      13.70455453      11.84379201         0.00000000       0.00000000       0.00000000          1
6
pbc=[F, F, F] list_num_par=6 frozen=false iter=20000 energy=-1.26974174 Lattice="15.00000000 0.00000000 0.00000000 0.00000000 15.00000000 0.00000000 0.00000000 0.00000000 15.00000000" energy_frozen_part=0.00000000 Properties=species:S:1:pos:R:3:velocities:R:3:Z:I:1
H         8.04005004      14.61621394      13.56878740         0.00000000       0.00000000       0.00000000          1
H         8.42779756      12.27505848      12.09470637         0.00000000       0.00000000       0.00000000          1
H         8.05542358      12.13897102      14.86004100         0.00000000       0.00000000       0.00000000          1
H         5.66843093      13.56848999      14.60896811         0.00000000       0.00000000       0.00000000          1
H         6.05617343      11.22733467      13.13487656         0.00000000       0.00000000       0.00000000          1
H         6.04079930      13.70456705      11.84362282         0.00000000       0.00000000       0.00000000          1
6
pbc=[F, F, F] list_num_par=6 frozen=false iter=20000 energy=-1.26974174 Lattice="15.00000000 0.00000000 0.00000000 0.00000000 15.00000000 0.00000000 0.00000000 0.00000000 15.00000000" energy_frozen_part=0.00000000 Properties=species:S:1:pos:R:3:velocities:R:3:Z:I:1
H         7.81065682      14.83054640      13.39368953         0.00000000       0.00000000       0.00000000          1
H         8.24186660      12.44008852      12.01382419         0.00000000       0.00000000       0.00000000          1
H         8.17916931      12.44898911      14.80672090         0.00000000       0.00000000       0.00000000          1
H         5.66357060      13.66241338      14.74638328         0.00000000       0.00000000       0.00000000          1
H         6.09477611      11.27195459      13.36651310         0.00000000       0.00000000       0.00000000          1
H         5.72625921      13.65351436      11.95348755         0.00000000       0.00000000       0.00000000          1
6
pbc=[F, F, F] list_num_par=6 frozen=false iter=20000 energy=-1.26974174 Lattice="15.00000000 0.00000000 0.00000000 0.00000000 15.00000000 0.00000000 0.00000000 0.00000000 15.00000000" energy_frozen_part=0.00000000 Properties=species:S:1:pos:R:3:velocities:R:3:Z:I:1
H         8.04018563      14.61600988      13.56907634         0.00000000       0.00000000       0.00000000          1
H         8.42775016      12.27464359      12.09526588         0.00000000       0.00000000       0.00000000          1
H         8.05507055      12.13889675      14.86058302         0.00000000       0.00000000       0.00000000          1
H         5.66830492      13.56872747      14.60910585         0.00000000       0.00000000       0.00000000          1
H         6.05586965      11.22736244      13.13530048         0.00000000       0.00000000       0.00000000          1
H         6.04098963      13.70447687      11.84379599         0.00000000       0.00000000       0.00000000          1
6
pbc=[F, F, F] list_num_par=6 frozen=false iter=20000 energy=-1.26974174 Lattice="15.00000000 0.00000000 0.00000000 0.00000000 15.00000000 0.00000000 0.00000000 0.00000000 15.00000000" energy_frozen_part=0.00000000 Properties=species:S:1:pos:R:3:velocities:R:3:Z:I:1
H         8.04020158      14.61600648      13.56907825         0.00000000       0.00000000       0.00000000          1
H         8.42773441      12.27464785      12.09526311         0.00000000       0.00000000       0.00000000          1
H         8.05504886      12.13889311      14.86057594         0.00000000       0.00000000       0.00000000          1
H         5.66830317      13.56875505      14.60909884         0.00000000       0.00000000       0.00000000          1
H         6.05583688      11.22739195      13.13529151         0.00000000       0.00000000       0.00000000          1
H         6.04099979      13.70450798      11.84378789         0.00000000       0.00000000       0.00000000          1
6
pbc=[F, F, F] list_num_par=6 frozen=false iter=20000 energy=-1.26974174 Lattice="15.00000000 0.00000000 0.00000000 0.00000000 15.00000000 0.00000000 0.00000000 0.00000000 15.00000000" energy_frozen_part=0.00000000 Properties=species:S:1:pos:R:3:velocities:R:3:Z:I:1
H         7.81067800      14.83051426      13.39369193         0.00000000       0.00000000       0.00000000          1
H         8.24183200      12.44002242      12.01386427         0.00000000       0.00000000       0.00000000          1
H         8.17912480      12.44896362      14.80675954         0.00000000       0.00000000       0.00000000          1
H         5.66356190      13.66245236      14.74639703         0.00000000       0.00000000       0.00000000          1
H         6.09471828      11.27195497      13.36655915         0.00000000       0.00000000       0.00000000          1
H         5.72626137      13.65350756      11.95350242         0.00000000       0.00000000       0.00000000          1
6
pbc=[F, F, F] list_num_par=6 frozen=false iter=20000 energy=-1.26974174 Lattice="15.00000000 0.00000000 0.00000000 0.00000000 15.00000000 0.00000000 0.00000000 0.00000000 15.00000000" energy_frozen_part=0.00000000 Properties=species:S:1:pos:R:3:velocities:R:3:Z:I:1
H         7.81120469      14.83062536      13.39354570         0.00000000       0.00000000       0.00000000          1
H         8.24181054      12.44015040      12.01352492         0.00000000       0.00000000       0.00000000          1
H         8.17900826      12.44886286      14.80641998         0.00000000       0.00000000       0.00000000          1
H         5.66374846      13.66298511      14.74607848         0.00000000       0.00000000       0.00000000          1
H         6.09435233      11.27250348      13.36605063         0.00000000       0.00000000       0.00000000          1
H         5.72654466      13.65426195      11.95318340         0.00000000       0.00000000       0.00000000          1
6
pbc=[F, F, F] list_num_par=6 frozen=false iter=20000 energy=-1.26974174 Lattice="15.00000000 0.00000000 0.00000000 0.00000000 15.00000000 0.00000000 0.00000000 0.00000000 15.00000000" energy_frozen_part=0.00000000 Properties=species:S:1:pos:R:3:velocities:R:3:Z:I:1
H         8.04022667      14.61594249      13.56905445         0.00000000       0.00000000       0.00000000          1
H         8.42768605      12.27463227      12.09514626         0.00000000       0.00000000       0.00000000          1
H         8.05504460      12.13878145      14.86045676         0.00000000       0.00000000       0.00000000          1
H         5.66832506      13.56870720      14.60908787         0.00000000       0.00000000       0.00000000          1
H         6.05578393      11.22739196      13.13517291         0.00000000       0.00000000       0.00000000          1
H         6.04096667      13.70455512      11.84377500         0.00000000       0.00000000       0.00000000          1
6
pbc=[F, F, F] list_num_par=6 frozen=false iter=20000 energy=-1.26974174 Lattice="15.00000000 0.00000000 0.00000000 0.00000000 15.00000000 0.00000000 0.00000000 0.00000000 15.00000000" energy_frozen_part=0.00000000 Properties=species:S:1:pos:R:3:velocities:R:3:Z:I:1
H         7.81064535      14.83056105      13.39370929         0.00000000       0.00000000       0.00000000          1
H         8.24186235      12.44011782      12.01381699         0.00000000       0.00000000       0.00000000          1
H         8.17918201      12.44899117      14.80671756         0.00000000       0.00000000       0.00000000          1
H         5.66357278      13.66240241      14.74640581         0.00000000       0.00000000       0.00000000          1
H         6.09479735      11.27195085      13.36651748         0.00000000       0.00000000       0.00000000          1
H         5.72624891      13.65352161      11.95351460         0.00000000       0.00000000       0.00000000          1
6
pbc=[F, F, F] list_num_par=6 frozen=false iter=20000 energy=-1.26974174 Lattice="15.00000000 0.00000000 0.00000000 0.00000000 15.00000000 0.00000000 0.00000000 0.00000000 15.00000000" energy_frozen_part=0.00000000 Properties=species:S:1:pos:R:3:velocities:R:3:Z:I:1
H         8.04020419      14.61600105      13.56908506         0.00000000       0.00000000       0.00000000          1
H         8.42774774      12.27464357      12.09526429         0.00000000       0.00000000       0.00000000          1
H         8.05505337      12.13888537      14.86057646         0.00000000       0.00000000       0.00000000          1
H         5.66830851      13.56874867      14.60910333         0.00000000       0.00000000       0.00000000          1
H         6.05584966      11.22739354      13.13528602         0.00000000       0.00000000       0.00000000          1
H         6.04099857      13.70450221      11.84378665         0.00000000       0.00000000       0.00000000          1
6
pbc=[F, F, F] list_num_par=6 frozen=false iter=20000 energy=-1.26974174 Lattice="15.00000000 0.00000000 0.00000000 0.00000000 15.00000000 0.00000000 0.00000000 0.00000000 15.00000000" energy_frozen_part=0.00000000 Properties=species:S:1:pos:R:3:velocities:R:3:Z:I:1
H         7.81119589      14.83062896      13.39355904         0.00000000       0.00000000       0.00000000          1
H         8.24182109      12.44015744      12.01353588         0.00000000       0.00000000       0.00000000          1
H         8.17901408      12.44886481      14.80642599         0.00000000       0.00000000       0.00000000          1
H         5.66374327      13.66296393      14.74608202         0.00000000       0.00000000       0.00000000          1
H         6.09436925      11.27249034      13.36604808         0.00000000       0.00000000       0.00000000          1
H         5.72654357      13.65425847      11.95319007         0.00000000       0.00000000       0.00000000          1
6
pbc=[F, F, F] list_num_par=6 frozen=false iter=20000 energy=-1.26974174 Lattice="15.00000000 0.00000000 0.00000000 0.00000000 15.00000000 0.00000000 0.00000000 0.00000000 15.00000000" energy_frozen_part=0.00000000 Properties=species:S:1:pos:R:3:velocities:R:3:Z:I:1
H         7.81063876      14.83056455      13.39371073         0.00000000       0.00000000       0.00000000          1
H         8.24186229      12.44011388      12.01382539         0.00000000       0.00000000       0.00000000          1
H         8.17917304      12.44899493      14.80671662         0.00000000       0.00000000       0.00000000          1
H         5.66356906      13.66240787      14.74640372         0.00000000       0.00000000       0.00000000          1
H         6.09478895      11.27195322      13.36651563         0.00000000       0.00000000       0.00000000          1
H         5.72625550      13.65352187      11.95350206         0.00000000       0.00000000       0.00000000          1
6
pbc=[F, F, F] list_num_par=6 frozen=false iter=20000 energy=-1.26974174 Lattice="15.00000000 0.00000000 0.00000000 0.00000000 15.00000000 0.00000000 0.00000000 0.00000000 15.00000000" energy_frozen_part=0.00000000 Properties=species:S:1:pos:R:3:velocities:R:3:Z:I:1
H         7.81069419      14.83054851      13.39366459         0.00000000       0.00000000       0.00000000          1
H         8.24180441      12.44004012      12.01384848         0.00000000       0.00000000       0.00000000          1
H         8.17916574      12.44901564      14.80674263         0.00000000       0.00000000       0.00000000          1
H         5.66360517      13.66251131      14.74642642         0.00000000       0.00000000       0.00000000          1
H         6.09471088      11.27200475      13.36660322         0.00000000       0.00000000       0.00000000          1
H         5.72624169      13.65354444      11.95352529         0.00000000       0.00000000       0.00000000          1
6
pbc=[F, F, F] list_num_par=6 frozen=false iter=20000 energy=-1.26974174 Lattice="15.00000000 0.00000000 0.00000000 0.00000000 15.00000000 0.00000000 0.00000000 0.00000000 15.00000000" energy_frozen_part=0.00000000 Properties=species:S:1:pos:R:3:velocities:R:3:Z:I:1
H         7.81068328      14.83055327      13.39366717         0.00000000       0.00000000       0.00000000          1
H         8.24179330      12.44004946      12.01384786         0.00000000       0.00000000       0.00000000          1
H         8.17914836      12.44901314      14.80674872         0.00000000       0.00000000       0.00000000          1
H         5.66358097      13.66252245      14.74641621         0.00000000       0.00000000       0.00000000          1
H         6.09469706      11.27201326      13.36660454         0.00000000       0.00000000       0.00000000          1
H         5.72622810      13.65355103      11.95351961         0.00000000       0.00000000       0.00000000          1
6
pbc=[F, F, F] list_num_par=6 frozen=false iter=20000 energy=-1.26974174 Lattice="15.00000000 0.00000000 0.00000000 0.00000000 15.00000000 0.00000000 0.00000000 0.00000000 15.00000000" energy_frozen_part=0.00000000 Properties=species:S:1:pos:R:3:velocities:R:3:Z:I:1
H         8.04021489      14.61595349      13.56908433         0.00000000       0.00000000       0.00000000          1
H         8.42768681      12.27463600      12.09517303         0.00000000       0.00000000       0.00000000          1
H         8.05503060      12.13878927      14.86048931         0.00000000       0.00000000       0.00000000          1
H         5.66830946      13.56870641      14.60910019         0.00000000       0.00000000       0.00000000          1
H         6.05578224      11.22739325      13.13519500         0.00000000       0.00000000       0.00000000          1
H         6.04096683      13.70455948      11.84379279         0.00000000       0.00000000       0.00000000          1
6
pbc=[F, F, F] list_num_par=6 frozen=false iter=20000 energy=-1.26974174 Lattice="15.00000000 0.00000000 0.00000000 0.00000000 15.00000000 0.00000000 0.00000000 0.00000000 15.00000000" energy_frozen_part=0.00000000 Properties=species:S:1:pos:R:3:velocities:R:3:Z:I:1
H         7.81066423      14.83060094      13.39356713         0.00000000       0.00000000       0.00000000          1
H         8.24182052      12.44005820      12.01381367         0.00000000       0.00000000       0.00000000          1
H         8.17925402      12.44912461      14.80671831         0.00000000       0.00000000       0.00000000          1
H         5.66364529      13.66254014      14.74642852         0.00000000       0.00000000       0.00000000          1
H         6.09480313      11.27199858      13.36667590         0.00000000       0.00000000       0.00000000          1
H         5.72621287      13.65348032      11.95352632         0.00000000       0.00000000       0.00000000          1
6
pbc=[F, F, F] list_num_par=6 frozen=false iter=20000 energy=-1.26974174 Lattice="15.00000000 0.00000000 0.00000000 0.00000000 15.00000000 0.00000000 0.00000000 0.00000000 15.00000000" energy_frozen_part=0.00000000 Properties=species:S:1:pos:R:3:velocities:R:3:Z:I:1
H         7.81069967      14.83054220      13.39367255         0.00000000       0.00000000       0.00000000          1
H         8.24180422      12.44003017      12.01384512         0.00000000       0.00000000       0.00000000          1
H         8.17915609      12.44899794      14.80674508         0.00000000       0.00000000       0.00000000          1
H         5.66359556      13.66251617      14.74642518         0.00000000       0.00000000       0.00000000          1
H         6.09470000      11.27200588      13.36660306         0.00000000       0.00000000       0.00000000          1
H         5.72625002      13.65355180      11.95352707         0.00000000       0.00000000       0.00000000          1
6
pbc=[F, F, F] list_num_par=6 frozen=false iter=20000 energy=-1.26974174 Lattice="15.00000000 0.00000000 0.00000000 0.00000000 15.00000000 0.00000000 0.00000000 0.00000000 15.00000000" energy_frozen_part=0.00000000 Properties=species:S:1:pos:R:3:velocities:R:3:Z:I:1
H         8.04022661      14.61595046      13.56909134         0.00000000       0.00000000       0.00000000          1
H         8.42770572      12.27462653      12.09519704         0.00000000       0.00000000       0.00000000          1
H         8.05503652      12.13879293      14.86051028         0.00000000       0.00000000       0.00000000          1
H         5.66832312      13.56870940      14.60909964         0.00000000       0.00000000       0.00000000          1
H         6.05580276      11.22738344      13.13521404         0.00000000       0.00000000       0.00000000          1
H         6.04098492      13.70453606      11.84378881         0.00000000       0.00000000       0.00000000          1
6
pbc=[F, F, F] list_num_par=6 frozen=false iter=20000 energy=-1.26974174 Lattice="15.00000000 0.00000000 0.00000000 0.00000000 15.00000000 0.00000000 0.00000000 0.00000000 15.00000000" energy_frozen_part=0.00000000 Properties=species:S:1:pos:R:3:velocities:R:3:Z:I:1
H         7.81105481      14.83063846      13.39364265         0.00000000       0.00000000       0.00000000          1
H         8.24188011      12.44018582      12.01363653         0.00000000       0.00000000       0.00000000          1
H         8.17893743      12.44888819      14.80652466         0.00000000       0.00000000       0.00000000          1
H         5.66360150      13.66285928      14.74606153         0.00000000       0.00000000       0.00000000          1
H         6.09441898      11.27241075      13.36605286         0.00000000       0.00000000       0.00000000          1
H         5.72654472      13.65415480      11.95316521         0.00000000       0.00000000       0.00000000          1
6
pbc=[F, F, F] list_num_par=6 frozen=false iter=20000 energy=-1.26974174 Lattice="15.00000000 0.00000000 0.00000000 0.00000000 15.00000000 0.00000000 0.00000000 0.00000000 15.00000000" energy_frozen_part=0.00000000 Properties=species:S:1:pos:R:3:velocities:R:3:Z:I:1
H         8.04020419      14.61600105      13.56908506         0.00000000       0.00000000       0.00000000          1
H         8.42774499      12.27464237      12.09526340         0.00000000       0.00000000       0.00000000          1
H         8.05505103      12.13888206      14.86057719         0.00000000       0.00000000       0.00000000          1
H         5.66830580      13.56874563      14.60909676         0.00000000       0.00000000       0.00000000          1
H         6.05584865      11.22738468      13.13528972         0.00000000       0.00000000       0.00000000          1
H         6.04099811      13.70449802      11.84378741         0.00000000       0.00000000       0.00000000          1
6
pbc=[F, F, F] list_num_par=6 frozen=false iter=20000 energy=-1.26974174 Lattice="15.00000000 0.00000000 0.00000000 0.00000000 15.00000000 0.00000000 0.00000000 0.00000000 15.00000000" energy_frozen_part=0.00000000 Properties=species:S:1:pos:R:3:velocities:R:3:Z:I:1
H         8.04022342      14.61594734      13.56905350         0.00000000       0.00000000       0.00000000          1
H         8.42769689      12.27463378      12.09515253         0.00000000       0.00000000       0.00000000          1
H         8.05504293      12.13878515      14.86046114         0.00000000       0.00000000       0.00000000          1
H         5.66832717      13.56870322      14.60908074         0.00000000       0.00000000       0.00000000          1
H         6.05579279      11.22738419      13.13516854         0.00000000       0.00000000       0.00000000          1
H         6.04097501      13.70454874      11.84376563         0.00000000       0.00000000       0.00000000          1
6
pbc=[F, F, F] list_num_par=6 frozen=false iter=20000 energy=-1.26974174 Lattice="15.00000000 0.00000000 0.00000000 0.00000000 15.00000000 0.00000000 0.00000000 0.00000000 15.00000000" energy_frozen_part=0.00000000 Properties=species:S:1:pos:R:3:velocities:R:3:Z:I:1
H         7.81065437      14.83058891      13.39355822         0.00000000       0.00000000       0.00000000          1
H         8.24182523      12.44005440      12.01380782         0.00000000       0.00000000       0.00000000          1
H         8.17924986      12.44910950      14.80670140         0.00000000       0.00000000       0.00000000          1
H         5.66364119      13.66251288      14.74641211         0.00000000       0.00000000       0.00000000          1
H         6.09480142      11.27198249      13.36664943         0.00000000       0.00000000       0.00000000          1
H         5.72621209      13.65346617      11.95351034         0.00000000       0.00000000       0.00000000          1
6
pbc=[F, F, F] list_num_par=6 frozen=false iter=20000 energy=-1.26974174 Lattice="15.00000000 0.00000000 0.00000000 0.00000000 15.00000000 0.00000000 0.00000000 0.00000000 15.00000000" energy_frozen_part=0.00000000 Properties=species:S:1:pos:R:3:velocities:R:3:Z:I:1
H         7.81105705      14.83064126      13.39363984         0.00000000       0.00000000       0.00000000          1
H         8.24188011      12.44018582      12.01363653         0.00000000       0.00000000       0.00000000          1
H         8.17893786      12.44889571      14.80652753         0.00000000       0.00000000       0.00000000          1
H         5.66360495      13.66286211      14.74606093         0.00000000       0.00000000       0.00000000          1
H         6.09442663      11.27240519      13.36605273         0.00000000       0.00000000       0.00000000          1
H         5.72653836      13.65414739      11.95317371         0.00000000       0.00000000       0.00000000          1
6
pbc=[F, F, F] list_num_par=6 frozen=false iter=20000 energy=-1.26974174 Lattice="15.00000000 0.00000000 0.00000000 0.00000000 15.00000000 0.00000000 0.00000000 0.00000000 15.00000000" energy_frozen_part=0.00000000 Properties=species:S:1:pos:R:3:velocities:R:3:Z:I:1
H         7.81069348      14.83054507      13.39367279         0.00000000       0.00000000       0.00000000          1
H         8.24179398      12.44004710      12.01383624         0.00000000       0.00000000       0.00000000          1
H         8.17916601      12.44900214      14.80673200         0.00000000       0.00000000       0.00000000          1
H         5.66360108      13.66251406      14.74643650         0.00000000       0.00000000       0.00000000          1
H         6.09469905      11.27201427      13.36660148         0.00000000       0.00000000       0.00000000          1
H         5.72623277      13.65355413      11.95353782         0.00000000       0.00000000       0.00000000          1
6
pbc=[F, F, F] list_num_par=6 frozen=false iter=20000 energy=-1.26974174 Lattice="15.00000000 0.00000000 0.00000000 0.00000000 15.00000000 0.00000000 0.00000000 0.00000000 15.00000000" energy_frozen_part=0.00000000 Properties=species:S:1:pos:R:3:velocities:R:3:Z:I:1
H         7.81112264      14.83069225      13.39359701         0.00000000       0.00000000       0.00000000          1
H         8.24185938      12.44026087      12.01354278         0.00000000       0.00000000       0.00000000          1
H         8.17897007      12.44891559      14.80643521         0.00000000       0.00000000       0.00000000          1
H         5.66366783      13.66294341      14.74603115         0.00000000       0.00000000       0.00000000          1
H         6.09440218      11.27251227      13.36597171         0.00000000       0.00000000       0.00000000          1
H         5.72655355      13.65429173      11.95313933         0.00000000       0.00000000       0.00000000          1
6
pbc=[F, F, F] list_num_par=6 frozen=false iter=20000 energy=-1.26974174 Lattice="15.00000000 0.00000000 0.00000000 0.00000000 15.00000000 0.00000000 0.00000000 0.00000000 15.00000000" energy_frozen_part=0.00000000 Properties=species:S:1:pos:R:3:velocities:R:3:Z:I:1
H         7.81104095      14.83063570      13.39361924         0.00000000       0.00000000       0.00000000          1
H         8.24186486      12.44017344      12.01362885         0.00000000       0.00000000       0.00000000          1
H         8.17896510      12.44891269      14.80652408         0.00000000       0.00000000       0.00000000          1
H         5.66361379      13.66285017      14.74607967         0.00000000       0.00000000       0.00000000          1
H         6.09444332      11.27238952      13.36608714         0.00000000       0.00000000       0.00000000          1
H         5.72651893      13.65412437      11.95318672         0.00000000       0.00000000       0.00000000          1
6
pbc=[F, F, F] list_num_par=6 frozen=false iter=20000 energy=-1.26974174 Lattice="15.00000000 0.00000000 0.00000000 0.00000000 15.00000000 0.00000000 0.00000000 0.00000000 15.00000000" energy_frozen_part=0.00000000 Properties=species:S:1:pos:R:3:velocities:R:3:Z:I:1
H         7.81119566      14.83062959      13.39354082         0.00000000       0.00000000       0.00000000          1
H         8.24181369      12.44014835      12.01352076         0.00000000       0.00000000       0.00000000          1