6
pbc=[F, F, F] list_num_par=6 frozen=false iter=20000 energy=-1.26974174 Lattice="15.00000000 0.00000000 0.00000000 0.00000000 15.00000000 0.00000000 0.00000000 0.00000000 15.00000000" energy_frozen_part=0.00000000 Properties=species:S:1:pos:R:3:velocities:R:3:Z:I:1
H        11.25747382       5.36562047      13.46368254         0.00000000       0.00000000       0.00000000          1
H        14.40942705       4.97856856      11.11337249         0.00000000       0.00000000       0.00000000          1
H        13.18724706       7.10930752      12.44398010         0.00000000       0.00000000       0.00000000          1
H        12.47965241       3.23487502      12.13308352         0.00000000       0.00000000       0.00000000          1
H        11.69623238       5.50658437      10.70834130         0.00000000       0.00000000       0.00000000          1
H        13.97066952       4.83760102      13.86871962         0.00000000       0.00000000       0.00000000          1
6
pbc=[F, F, F] list_num_par=6 frozen=false iter=20000 energy=-1.26974174 Lattice="15.00000000 0.00000000 0.00000000 0.00000000 15.00000000 0.00000000 0.00000000 0.00000000 15.00000000" energy_frozen_part=0.00000000 Properties=species:S:1:pos:R:3:velocities:R:3:Z:I:1
H        11.25815177       5.36392168      13.46366186         0.00000000       0.00000000       0.00000000          1
H        14.40855503       4.97749089      11.11117328         0.00000000       0.00000000       0.00000000          1
H        13.18700967       7.10794848      12.44280646         0.00000000       0.00000000       0.00000000          1
H        12.47969926       3.23345642      12.13203457         0.00000000       0.00000000       0.00000000          1
H        11.69501489       5.50519412      10.70804123         0.00000000       0.00000000       0.00000000          1
H        13.97168880       4.83621262      13.86679880         0.00000000       0.00000000       0.00000000          1
6
pbc=[F, F, F] list_num_par=6 frozen=false iter=20000 energy=-1.26974174 Lattice="15.00000000 0.00000000 0.00000000 0.00000000 15.00000000 0.00000000 0.00000000 0.00000000 15.00000000" energy_frozen_part=0.00000000 Properties=species:S:1:pos:R:3:velocities:R:3:Z:I:1
H        11.25749554       5.36565849      13.46375465         0.00000000       0.00000000       0.00000000          1
H        14.40936357       4.97846189      11.11336384         0.00000000       0.00000000       0.00000000          1
H        13.18728228       7.10926762      12.44394681         0.00000000       0.00000000       0.00000000          1
H        12.47957022       3.23485042      12.13316890         0.00000000       0.00000000       0.00000000          1
H        11.69617514       5.50654426      10.70839260         0.00000000       0.00000000       0.00000000          1
H        13.97068753       4.83757518      13.86872120         0.00000000       0.00000000       0.00000000          1
6
pbc=[F, F, F] list_num_par=6 frozen=false iter=20000 energy=-1.26974174 Lattice="15.00000000 0.00000000 0.00000000 0.00000000 15.00000000 0.00000000 0.00000000 0.00000000 15.00000000" energy_frozen_part=0.00000000 Properties=species:S:1:pos:R:3:velocities:R:3:Z:I:1
H        11.25746743       5.36565220      13.46377226         0.00000000       0.00000000       0.00000000          1
H        14.40932710       4.97846932      11.11336770         0.00000000       0.00000000       0.00000000          1
H        13.18726103       7.10926876      12.44397756         0.00000000       0.00000000       0.00000000          1
H        12.47954110       3.23485238      12.13316852         0.00000000       0.00000000       0.00000000          1
H        11.69613289       5.50656282      10.70841966         0.00000000       0.00000000       0.00000000          1
H        13.97066138       4.83756174      13.86872360         0.00000000       0.00000000       0.00000000          1
6
pbc=[F, F, F] list_num_par=6 frozen=false iter=20000 energy=-1.26974174 Lattice="15.00000000 0.00000000 0.00000000 0.00000000 15.00000000 0.00000000 0.00000000 0.00000000 15.00000000" energy_frozen_part=0.00000000 Properties=species:S:1:pos:R:3:velocities:R:3:Z:I:1
H        11.25812745       5.36394131      13.46362628         0.00000000       0.00000000       0.00000000          1
H        14.40852457       4.97747402      11.11113297         0.00000000       0.00000000       0.00000000          1
H        13.18699551       7.10794639      12.44275508         0.00000000       0.00000000       0.00000000          1
H        12.47965672       3.23346405      12.13200682         0.00000000       0.00000000       0.00000000          1
H        11.69498719       5.50519647      10.70799545         0.00000000       0.00000000       0.00000000          1
H        13.97166168       4.83621762      13.86676548         0.00000000       0.00000000       0.00000000          1
6
pbc=[F, F, F] list_num_par=6 frozen=false iter=20000 energy=-1.26974174 Lattice="15.00000000 0.00000000 0.00000000 0.00000000 15.00000000 0.00000000 0.00000000 0.00000000 15.00000000" energy_frozen_part=0.00000000 Properties=species:S:1:pos:R:3:velocities:R:3:Z:I:1
H        11.25822888       5.36396481      13.46361298         0.00000000       0.00000000       0.00000000          1
H        14.40863936       4.97742011      11.11115886         0.00000000       0.00000000       0.00000000          1
H        13.18717140       7.10792581      12.44279042         0.00000000       0.00000000       0.00000000          1
H        12.47969565       3.23346469      12.13198141         0.00000000       0.00000000       0.00000000          1
H        11.69512891       5.50524920      10.70799434         0.00000000       0.00000000       0.00000000          1
H        13.97174369       4.83614716      13.86677667         0.00000000       0.00000000       0.00000000          1
6
pbc=[F, F, F] list_num_par=6 frozen=false iter=20000 energy=-1.26974174 Lattice="15.00000000 0.00000000 0.00000000 0.00000000 15.00000000 0.00000000 0.00000000 0.00000000 15.00000000" energy_frozen_part=0.00000000 Properties=species:S:1:pos:R:3:velocities:R:3:Z:I:1
H        11.25746936       5.36565787      13.46373155         0.00000000       0.00000000       0.00000000          1
H        14.40935254       4.97842741      11.11334483         0.00000000       0.00000000       0.00000000          1
H        13.18729128       7.10924418      12.44393960         0.00000000       0.00000000       0.00000000          1
H        12.47953283       3.23483781      12.13314015         0.00000000       0.00000000       0.00000000          1
H        11.69616578       5.50655125      10.70837437         0.00000000       0.00000000       0.00000000          1
H        13.97065593       4.83753528      13.86870241         0.00000000       0.00000000       0.00000000          1
6
pbc=[F, F, F] list_num_par=6 frozen=false iter=20000 energy=-1.26974174 Lattice="15.00000000 0.00000000 0.00000000 0.00000000 15.00000000 0.00000000 0.00000000 0.00000000 15.00000000" energy_frozen_part=0.00000000 Properties=species:S:1:pos:R:3:velocities:R:3:Z:I:1
H        11.25816107       5.36391318      13.46366697         0.00000000       0.00000000       0.00000000          1
H        14.40854772       4.97747625      11.11115468         0.00000000       0.00000000       0.00000000          1
H        13.18702242       7.10793704      12.44280762         0.00000000       0.00000000       0.00000000          1
H        12.47968951       3.23345169      12.13200952         0.00000000       0.00000000       0.00000000          1
H        11.69500931       5.50520566      10.70804115         0.00000000       0.00000000       0.00000000          1
H        13.97170014       4.83618787      13.86678555         0.00000000       0.00000000       0.00000000          1
6
pbc=[F, F, F] list_num_par=6 frozen=false iter=20000 energy=-1.26974174 Lattice="15.00000000 0.00000000 0.00000000 0.00000000 15.00000000 0.00000000 0.00000000 0.00000000 15.00000000" energy_frozen_part=0.00000000 Properties=species:S:1:pos:R:3:velocities:R:3:Z:I:1
H        11.25815932       5.36392052      13.46365154         0.00000000       0.00000000       0.00000000          1
H        14.40855476       4.97748179      11.11116253         0.00000000       0.00000000       0.00000000          1
H        13.18701881       7.10794585      12.44278643         0.00000000       0.00000000       0.00000000          1
H        12.47970269       3.23345242      12.13202519         0.00000000       0.00000000       0.00000000          1
H        11.69501448       5.50518774      10.70802775         0.00000000       0.00000000       0.00000000          1
H        13.97169716       4.83621053      13.86678653         0.00000000       0.00000000       0.00000000          1
6
pbc=[F, F, F] list_num_par=6 frozen=false iter=20000 energy=-1.26974174 Lattice="15.00000000 0.00000000 0.00000000 0.00000000 15.00000000 0.00000000 0.00000000 0.00000000 15.00000000" energy_frozen_part=0.00000000 Properties=species:S:1:pos:R:3:velocities:R:3:Z:I:1
H        11.25749001       5.36565269      13.46376425         0.00000000       0.00000000       0.00000000          1
H        14.40933733       4.97841059      11.11335095         0.00000000       0.00000000       0.00000000          1
H        13.18728462       7.10924270      12.44391824         0.00000000       0.00000000       0.00000000          1
H        12.47953852       3.23482428      12.13318442         0.00000000       0.00000000       0.00000000          1
H        11.69614253       5.50651088      10.70840303         0.00000000       0.00000000       0.00000000          1
H        13.97068039       4.83755533      13.86870997         0.00000000       0.00000000       0.00000000          1
6
pbc=[F, F, F] list_num_par=6 frozen=false iter=20000 energy=-1.26974174 Lattice="15.00000000 0.00000000 0.00000000 0.00000000 15.00000000 0.00000000 0.00000000 0.00000000 15.00000000" energy_frozen_part=0.00000000 Properties=species:S:1:pos:R:3:velocities:R:3:Z:I:1
H        11.25749722       5.36566737      13.46376491         0.00000000       0.00000000       0.00000000          1
H        14.40936069       4.97847169      11.11335029         0.00000000       0.00000000       0.00000000          1
H        13.18728493       7.10927795      12.44394669         0.00000000       0.00000000       0.00000000          1
H        12.47958053       3.23485755      12.13317209         0.00000000       0.00000000       0.00000000          1
H        11.69616441       5.50655111      10.70840613         0.00000000       0.00000000       0.00000000          1
H        13.97069409       4.83758632      13.86870995         0.00000000       0.00000000       0.00000000          1
6
pbc=[F, F, F] list_num_par=6 frozen=false iter=20000 energy=-1.26974174 Lattice="15.00000000 0.00000000 0.00000000 0.00000000 15.00000000 0.00000000 0.00000000 0.00000000 15.00000000" energy_frozen_part=0.00000000 Properties=species:S:1:pos:R:3:velocities:R:3:Z:I:1
H        11.25813104       5.36394309      13.46362567         0.00000000       0.00000000       0.00000000          1
H        14.40851997       4.97746599      11.11112936         0.00000000       0.00000000       0.00000000          1
H        13.18699806       7.10795034      12.44275192         0.00000000       0.00000000       0.00000000          1
H        12.47965741       3.23345786      12.13200208         0.00000000       0.00000000       0.00000000          1
H        11.69498719       5.50519647      10.70799545         0.00000000       0.00000000       0.00000000          1
H        13.97166494       4.83621129      13.86675805         0.00000000       0.00000000       0.00000000          1
6
pbc=[F, F, F] list_num_par=6 frozen=false iter=20000 energy=-1.26974174 Lattice="15.00000000 0.00000000 0.00000000 0.00000000 15.00000000 0.00000000 0.00000000 0.00000000 15.00000000" energy_frozen_part=0.00000000 Properties=species:S:1:pos:R:3:velocities:R:3:Z:I:1
H        11.25822722       5.36395918      13.46361158         0.00000000       0.00000000       0.00000000          1
H        14.40863794       4.97742470      11.11115652         0.00000000       0.00000000       0.00000000          1
H        13.18716976       7.10792381      12.44279887         0.00000000       0.00000000       0.00000000          1
H        12.47970409       3.23346109      12.13196928         0.00000000       0.00000000       0.00000000          1
H        11.69512449       5.50524945      10.70799497         0.00000000       0.00000000       0.00000000          1
H        13.97174099       4.83613258      13.86677568         0.00000000       0.00000000       0.00000000          1
6
pbc=[F, F, F] list_num_par=6 frozen=false iter=20000 energy=-1.26974174 Lattice="15.00000000 0.00000000 0.00000000 0.00000000 15.00000000 0.00000000 0.00000000 0.00000000 15.00000000" energy_frozen_part=0.00000000 Properties=species:S:1:pos:R:3:velocities:R:3:Z:I:1
H        11.25800273       5.36424979      13.46348604         0.00000000       0.00000000       0.00000000          1
H        14.40888764       4.97759217      11.11168996         0.00000000       0.00000000       0.00000000          1
H        13.18748144       7.10805813      12.44343075         0.00000000       0.00000000       0.00000000          1
H        12.47940487       3.23377810      12.13174224         0.00000000       0.00000000       0.00000000          1
H        11.69556273       5.50596253      10.70799119         0.00000000       0.00000000       0.00000000          1
H        13.97132895       4.83587579      13.86718314         0.00000000       0.00000000       0.00000000          1
6
pbc=[F, F, F] list_num_par=6 frozen=false iter=20000 energy=-1.26974174 Lattice="15.00000000 0.00000000 0.00000000 0.00000000 15.00000000 0.00000000 0.00000000 0.00000000 15.00000000" energy_frozen_part=0.00000000 Properties=species:S:1:pos:R:3:velocities:R:3:Z:I:1
H        11.25749356       5.36564775      13.46375994         0.00000000       0.00000000       0.00000000          1
H        14.40934093       4.97841105      11.11334161         0.00000000       0.00000000       0.00000000          1
H        13.18728009       7.10924026      12.44391964         0.00000000       0.00000000       0.00000000          1
H        12.47954960       3.23482283      12.13318308         0.00000000       0.00000000       0.00000000          1
H        11.69614151       5.50650638      10.70839816         0.00000000       0.00000000       0.00000000          1
H        13.97068795       4.83755569      13.86870764         0.00000000       0.00000000       0.00000000          1
6
pbc=[F, F, F] list_num_par=6 frozen=false iter=20000 energy=-1.26974174 Lattice="15.00000000 0.00000000 0.00000000 0.00000000 15.00000000 0.00000000 0.00000000 0.00000000 15.00000000" energy_frozen_part=0.00000000 Properties=species:S:1:pos:R:3:velocities:R:3:Z:I:1
H        11.25800603       5.36425321      13.46349255         0.00000000       0.00000000       0.00000000          1
H        14.40888196       4.97758827      11.11168250         0.00000000       0.00000000       0.00000000          1
H        13.18747969       7.10806629      12.44341872         0.00000000       0.00000000       0.00000000          1
H        12.47940885       3.23377830      12.13175207         0.00000000       0.00000000       0.00000000          1
H        11.69555121       5.50595893      10.70800023         0.00000000       0.00000000       0.00000000          1
H        13.97133301       4.83588886      13.86717923         0.00000000       0.00000000       0.00000000          1
6
pbc=[F, F, F] list_num_par=6 frozen=false iter=20000 energy=-1.26974174 Lattice="15.00000000 0.00000000 0.00000000 0.00000000 15.00000000 0.00000000 0.00000000 0.00000000 15.00000000" energy_frozen_part=0.00000000 Properties=species:S:1:pos:R:3:velocities:R:3:Z:I:1
H        11.25749575       5.36566949      13.46376206         0.00000000       0.00000000       0.00000000          1
H        14.40935321       4.97845993      11.11335235         0.00000000       0.00000000       0.00000000          1
H        13.18728470       7.10927484      12.44393353         0.00000000       0.00000000       0.00000000          1
H        12.47957299       3.23485733      12.13317845         0.00000000       0.00000000       0.00000000          1
H        11.69615727       5.50654003      10.70839876         0.00000000       0.00000000       0.00000000          1
H        13.97069103       4.83758956      13.86871773         0.00000000       0.00000000       0.00000000          1
6
pbc=[F, F, F] list_num_par=6 frozen=false iter=20000 energy=-1.26974174 Lattice="15.00000000 0.00000000 0.00000000 0.00000000 15.00000000 0.00000000 0.00000000 0.00000000 15.00000000" energy_frozen_part=0.00000000 Properties=species:S:1:pos:R:3:velocities:R:3:Z:I:1
H        11.25808253       5.36412759      13.46357292         0.00000000       0.00000000       0.00000000          1
H        14.40873723       4.97762082      11.11144147         0.00000000       0.00000000       0.00000000          1
H        13.18731205       7.10804873      12.44323586         0.00000000       0.00000000       0.00000000          1
H        12.47950814       3.23369933      12.13178003         0.00000000       0.00000000       0.00000000          1
H        11.69532553       5.50576708      10.70802728         0.00000000       0.00000000       0.00000000          1
H        13.97148880       4.83598512      13.86699379         0.00000000       0.00000000       0.00000000          1
6
pbc=[F, F, F] list_num_par=6 frozen=false iter=20000 energy=-1.26974174 Lattice="15.00000000 0.00000000 0.00000000 0.00000000 15.00000000 0.00000000 0.00000000 0.00000000 15.00000000" energy_frozen_part=0.00000000 Properties=species:S:1:pos:R:3:velocities:R:3:Z:I:1
H        11.25749370       5.36566628      13.46376553         0.00000000       0.00000000       0.00000000          1
H        14.40935689       4.97845822      11.11335232         0.00000000       0.00000000       0.00000000          1
H        13.18727921       7.10927381      12.44393725         0.00000000       0.00000000       0.00000000          1
H        12.47957145       3.23485833      12.13318028         0.00000000       0.00000000       0.00000000          1
H        11.69615846       5.50654141      10.70840141         0.00000000       0.00000000       0.00000000          1
H        13.97069103       4.83758956      13.86871773         0.00000000       0.00000000       0.00000000          1
6
pbc=[F, F, F] list_num_par=6 frozen=false iter=20000 energy=-1.26974174 Lattice="15.00000000 0.00000000 0.00000000 0.00000000 15.00000000 0.00000000 0.00000000 0.00000000 15.00000000" energy_frozen_part=0.00000000 Properties=species:S:1:pos:R:3:velocities:R:3:Z:I:1
H        11.25749533       5.36564104      13.46374197         0.00000000       0.00000000       0.00000000          1
H        14.40936428       4.97842463      11.11334699         0.00000000       0.00000000       0.00000000          1
H        13.18729643       7.10924140      12.44392430         0.00000000       0.00000000       0.00000000          1
H        12.47955973       3.23482870      12.13315555         0.00000000       0.00000000       0.00000000          1
H        11.69617255       5.50652285      10.70837804         0.00000000       0.00000000       0.00000000          1
H        13.97068442       4.83754895      13.86870448         0.00000000       0.00000000       0.00000000          1
6
pbc=[F, F, F] list_num_par=6 frozen=false iter=20000 energy=-1.26974174 Lattice="15.00000000 0.00000000 0.00000000 0.00000000 15.00000000 0.00000000 0.00000000 0.00000000 15.00000000" energy_frozen_part=0.00000000 Properties=species:S:1:pos:R:3:velocities:R:3:Z:I:1
H        11.25749016       5.36564766      13.46373787         0.00000000       0.00000000       0.00000000          1
H        14.40936428       4.97842463      11.11334699         0.00000000       0.00000000       0.00000000          1
H        13.18729797       7.10924161      12.44393229         0.00000000       0.00000000       0.00000000          1
H        12.47956393       3.23482743      12.13315593         0.00000000       0.00000000       0.00000000          1
H        11.69617888       5.50652551      10.70838254         0.00000000       0.00000000       0.00000000          1
H        13.97068023       4.83754281      13.86870427         0.00000000       0.00000000       0.00000000          1
6
pbc=[F, F, F] list_num_par=6 frozen=false iter=20000 energy=-1.26974174 Lattice="15.00000000 0.00000000 0.00000000 0.00000000 15.00000000 0.00000000 0.00000000 0.00000000 15.00000000" energy_frozen_part=0.00000000 Properties=species:S:1:pos:R:3:velocities:R:3:Z:I:1
H        11.25829416       5.36429979      13.46410900         0.00000000       0.00000000       0.00000000          1
H        14.40845450       4.97716702      11.11140962         0.00000000       0.00000000       0.00000000          1
H        13.18761526       7.10786233      12.44331444         0.00000000       0.00000000       0.00000000          1
H        12.47914240       3.23360993      12.13220970         0.00000000       0.00000000       0.00000000          1
H        11.69505035       5.50571227      10.70847433         0.00000000       0.00000000       0.00000000          1
H        13.97170069       4.83575582      13.86704822         0.00000000       0.00000000       0.00000000          1
6
pbc=[F, F, F] list_num_par=6 frozen=false iter=20000 energy=-1.26974174 Lattice="15.00000000 0.00000000 0.00000000 0.00000000 15.00000000 0.00000000 0.00000000 0.00000000 15.00000000" energy_frozen_part=0.00000000 Properties=species:S:1:pos:R:3:velocities:R:3:Z:I:1
H        11.25822910       5.36395901      13.46361977         0.00000000       0.00000000       0.00000000          1
H        14.40864208       4.97742998      11.11115668         0.00000000       0.00000000       0.00000000          1
H        13.18716214       7.10792646      12.44279178         0.00000000       0.00000000       0.00000000          1
H        12.47970394       3.23346072      12.13198397         0.00000000       0.00000000       0.00000000          1
H        11.69512360       5.50524142      10.70799776         0.00000000       0.00000000       0.00000000          1
H        13.97173984       4.83614807      13.86677685         0.00000000       0.00000000       0.00000000          1
6
pbc=[F, F, F] list_num_par=6 frozen=false iter=20000 energy=-1.26974174 Lattice="15.00000000 0.00000000 0.00000000 0.00000000 15.00000000 0.00000000 0.00000000 0.00000000 15.00000000" energy_frozen_part=0.00000000 Properties=species:S:1:pos:R:3:velocities:R:3:Z:I:1
H        11.25748514       5.36564496      13.46376077         0.00000000       0.00000000       0.00000000          1
H        14.40932856       4.97841948      11.11333675         0.00000000       0.00000000       0.00000000          1
H        13.18727436       7.10924466      12.44391943         0.00000000       0.00000000       0.00000000          1
H        12.47954413       3.23482280      12.13318514         0.00000000       0.00000000       0.00000000          1
H        11.69613099       5.50650851      10.70839831         0.00000000       0.00000000       0.00000000          1
H        13.97068286       4.83756402      13.86870027         0.00000000       0.00000000       0.00000000          1
6
pbc=[F, F, F] list_num_par=6 frozen=false iter=20000 energy=-1.26974174 Lattice="15.00000000 0.00000000 0.00000000 0.00000000 15.00000000 0.00000000 0.00000000 0.00000000 15.00000000" energy_frozen_part=0.00000000 Properties=species:S:1:pos:R:3:velocities:R:3:Z:I:1
H        12.01421645       6.48160706      14.06874637         0.00000000       0.00000000       0.00000000          1
H        14.19620112       7.05581455      10.82563562         0.00000000       0.00000000       0.00000000          1
H        13.80369283       8.44952546      13.21472976         0.00000000       0.00000000       0.00000000          1
H        12.40672411       5.08788981      11.67964616         0.00000000       0.00000000       0.00000000          1
H        11.61390150       7.76598850      11.62040442         0.00000000       0.00000000       0.00000000          1
H        14.59651624       5.77142461      13.27397240         0.00000000       0.00000000       0.00000000          1
6
pbc=[F, F, F] list_num_par=6 frozen=false iter=20000 energy=-1.26974174 Lattice="15.00000000 0.00000000 0.00000000 0.00000000 15.00000000 0.00000000 0.00000000 0.00000000 15.00000000" energy_frozen_part=0.00000000 Properties=species:S:1:pos:R:3:velocities:R:3:Z:I:1
H        11.25750130       5.36566913      13.46376477         0.00000000       0.00000000       0.00000000          1
H        14.40935326       4.97847217      11.11334225         0.00000000       0.00000000       0.00000000          1
H        13.18728806       7.10927583      12.44393861         0.00000000       0.00000000       0.00000000          1
H        12.47957184       3.23485714      12.13317339         0.00000000       0.00000000       0.00000000          1
H        11.69615701       5.50655115      10.70840566         0.00000000       0.00000000       0.00000000          1
H        13.97070173       4.83758517      13.86870440         0.00000000       0.00000000       0.00000000          1
6
pbc=[F, F, F] list_num_par=6 frozen=false iter=20000 energy=-1.26974174 Lattice="15.00000000 0.00000000 0.00000000 0.00000000 15.00000000 0.00000000 0.00000000 0.00000000 15.00000000" energy_frozen_part=0.00000000 Properties=species:S:1:pos:R:3:velocities:R:3:Z:I:1
H        11.25829727       5.36428605      13.46411071         0.00000000       0.00000000       0.00000000          1
H        14.40847214       4.97718854      11.11143040         0.00000000       0.00000000       0.00000000          1
H        13.18760134       7.10786681      12.44333602         0.00000000       0.00000000       0.00000000          1
H        12.47916512       3.23361257      12.13220220         0.00000000       0.00000000       0.00000000          1
H        11.69506598       5.50572178      10.70847386         0.00000000       0.00000000       0.00000000          1
H        13.97170295       4.83575611      13.86706026         0.00000000       0.00000000       0.00000000          1
6
pbc=[F, F, F] list_num_par=6 frozen=false iter=20000 energy=-1.26974174 Lattice="15.00000000 0.00000000 0.00000000 0.00000000 15.00000000 0.00000000 0.00000000 0.00000000 15.00000000" energy_frozen_part=0.00000000 Properties=species:S:1:pos:R:3:velocities:R:3:Z:I:1
H        11.25747601       5.36565041      13.46373697         0.00000000       0.00000000       0.00000000          1
H        14.40934940       4.97843368      11.11334594         0.00000000       0.00000000       0.00000000          1
H        13.18728871       7.10924440      12.44394666         0.00000000       0.00000000       0.00000000          1
H        12.47953947       3.23483961      12.13313976         0.00000000       0.00000000       0.00000000          1
H        11.69616587       5.50654651      10.70837848         0.00000000       0.00000000       0.00000000          1
H        13.97066195       4.83753224      13.86870670         0.00000000       0.00000000       0.00000000          1
6
pbc=[F, F, F] list_num_par=6 frozen=false iter=20000 energy=-1.26974174 Lattice="15.00000000 0.00000000 0.00000000 0.00000000 15.00000000 0.00000000 0.00000000 0.00000000 15.00000000" energy_frozen_part=0.00000000 Properties=species:S:1:pos:R:3:velocities:R:3:Z:I:1
H        11.25747594       5.36563429      13.46378192         0.00000000       0.00000000       0.00000000          1
H        14.40932331       4.97844772      11.11335846         0.00000000       0.00000000       0.00000000          1
H        13.18727151       7.10925092      12.44397714         0.00000000       0.00000000       0.00000000          1
H        12.47952862       3.23483573      12.13315709         0.00000000       0.00000000       0.00000000          1
H        11.69613087       5.50655864      10.70842333         0.00000000       0.00000000       0.00000000          1
H        13.97066785       4.83753642      13.86871741         0.00000000       0.00000000       0.00000000          1
6
pbc=[F, F, F] list_num_par=6 frozen=false iter=20000 energy=-1.26974174 Lattice="15.00000000 0.00000000 0.00000000 0.00000000 15.00000000 0.00000000 0.00000000 0.00000000 15.00000000" energy_frozen_part=0.00000000 Properties=species:S:1:pos:R:3:velocities:R:3:Z:I:1
H        11.25751017       5.36563998      13.46376751         0.00000000       0.00000000       0.00000000          1
H        14.40935096       4.97843402      11.11333267         0.00000000       0.00000000       0.00000000          1
H        13.18729896       7.10924419      12.44394156         0.00000000       0.00000000       0.00000000          1
H        12.47957105       3.23482515      12.13316073         0.00000000       0.00000000       0.00000000          1
H        11.69615525       5.50652845      10.70840967         0.00000000       0.00000000       0.00000000          1
H        13.97070501       4.83754428      13.86869648         0.00000000       0.00000000       0.00000000          1
6
pbc=[F, F, F] list_num_par=6 frozen=false iter=20000 energy=-1.26974174 Lattice="15.00000000 0.00000000 0.00000000 0.00000000 15.00000000 0.00000000 0.00000000 0.00000000 15.00000000" energy_frozen_part=0.00000000 Properties=species:S:1:pos:R:3:velocities:R:3:Z:I:1
H        11.25749959       5.36564183      13.46376689         0.00000000       0.00000000       0.00000000          1
H        14.40936165       4.97841758      11.11336182         0.00000000       0.00000000       0.00000000          1