6
pbc=[F, F, F] list_num_par=6 frozen=false iter=20000 energy=-1.26974174 Lattice="15.00000000 0.00000000 0.00000000 0.00000000 15.00000000 0.00000000 0.00000000 0.00000000 15.00000000" energy_frozen_part=0.00000000 Properties=species:S:1:pos:R:3:velocities:R:3:Z:I:1
H         4.39161483       5.35022605      13.42052321         0.00000000       0.00000000       0.00000000          1
H         4.77925411       7.22504745      11.38605562         0.00000000       0.00000000       0.00000000          1
H         5.51340242       4.55927002      10.98736074         0.00000000       0.00000000       0.00000000          1
H         7.09286327       4.64988866      13.28983305         0.00000000       0.00000000       0.00000000          1
H         7.48050432       6.52471235      11.25536805         0.00000000       0.00000000       0.00000000          1
H         6.35871800       7.31565816      13.68853084         0.00000000       0.00000000       0.00000000          1
6
pbc=[F, F, F] list_num_par=6 frozen=false iter=20000 energy=-1.26974174 Lattice="15.00000000 0.00000000 0.00000000 0.00000000 15.00000000 0.00000000 0.00000000 0.00000000 15.00000000" energy_frozen_part=0.00000000 Properties=species:S:1:pos:R:3:velocities:R:3:Z:I:1
H         4.39164650       5.35020353      13.42052166         0.00000000       0.00000000       0.00000000          1
H         4.77926082       7.22502365      11.38603979         0.00000000       0.00000000       0.00000000          1
H         5.51342627       4.55924750      10.98735847         0.00000000       0.00000000       0.00000000          1
H         7.09289490       4.64989733      13.28982638         0.00000000       0.00000000       0.00000000          1
H         7.48051097       6.52471224      11.25535132         0.00000000       0.00000000       0.00000000          1
H         6.35872714       7.31566800      13.68851240         0.00000000       0.00000000       0.00000000          1
6
pbc=[F, F, F] list_num_par=6 frozen=false iter=20000 energy=-1.26974174 Lattice="15.00000000 0.00000000 0.00000000 0.00000000 15.00000000 0.00000000 0.00000000 0.00000000 15.00000000" energy_frozen_part=0.00000000 Properties=species:S:1:pos:R:3:velocities:R:3:Z:I:1
H         4.39096750       5.35047033      13.42033083         0.00000000       0.00000000       0.00000000          1
H         4.77950737       7.22534179      11.38608296         0.00000000       0.00000000       0.00000000          1
H         5.51301621       4.55939888      10.98732447         0.00000000       0.00000000       0.00000000          1
H         7.09204698       4.64941045      13.29011658         0.00000000       0.00000000       0.00000000          1
H         7.48059113       6.52429181      11.25587012         0.00000000       0.00000000       0.00000000          1
H         6.35854569       7.31535984      13.68886751         0.00000000       0.00000000       0.00000000          1
6
pbc=[F, F, F] list_num_par=6 frozen=false iter=20000 energy=-1.26974174 Lattice="15.00000000 0.00000000 0.00000000 0.00000000 15.00000000 0.00000000 0.00000000 0.00000000 15.00000000" energy_frozen_part=0.00000000 Properties=species:S:1:pos:R:3:velocities:R:3:Z:I:1
H         4.25571902       6.04022097      13.89037820         0.00000000       0.00000000       0.00000000          1
H         4.74739272       6.95188507      11.29588320         0.00000000       0.00000000       0.00000000          1
H         5.01978447       4.23749953      11.89772076         0.00000000       0.00000000       0.00000000          1
H         6.79276834       4.87289614      13.96098961         0.00000000       0.00000000       0.00000000          1
H         7.28444294       5.78456332      11.36649230         0.00000000       0.00000000       0.00000000          1
H         6.52038330       7.58728259      13.35915484         0.00000000       0.00000000       0.00000000          1
6
pbc=[F, F, F] list_num_par=6 frozen=false iter=20000 energy=-1.26974174 Lattice="15.00000000 0.00000000 0.00000000 0.00000000 15.00000000 0.00000000 0.00000000 0.00000000 15.00000000" energy_frozen_part=0.00000000 Properties=species:S:1:pos:R:3:velocities:R:3:Z:I:1
H         4.25570031       6.04026533      13.89037461         0.00000000       0.00000000       0.00000000          1
H         4.74739951       6.95187129      11.29586432         0.00000000       0.00000000       0.00000000          1
H         5.01977690       4.23750377      11.89775576         0.00000000       0.00000000       0.00000000          1
H         6.79274605       4.87292511      13.96102791         0.00000000       0.00000000       0.00000000          1
H         7.28444948       5.78452973      11.36651222         0.00000000       0.00000000       0.00000000          1
H         6.52037957       7.58729308      13.35912735         0.00000000       0.00000000       0.00000000          1
6
pbc=[F, F, F] list_num_par=6 frozen=false iter=20000 energy=-1.26974174 Lattice="15.00000000 0.00000000 0.00000000 0.00000000 15.00000000 0.00000000 0.00000000 0.00000000 15.00000000" energy_frozen_part=0.00000000 Properties=species:S:1:pos:R:3:velocities:R:3:Z:I:1
H         4.39143858       5.35070268      13.42087952         0.00000000       0.00000000       0.00000000          1
H         4.77899089       7.22515827      11.38604969         0.00000000       0.00000000       0.00000000          1
H         5.51318087       4.55932408      10.98782868         0.00000000       0.00000000       0.00000000          1
H         7.09269457       4.65040714      13.29024564         0.00000000       0.00000000       0.00000000          1
H         7.48024584       6.52485930      11.25541884         0.00000000       0.00000000       0.00000000          1
H         6.35850739       7.31624133      13.68846507         0.00000000       0.00000000       0.00000000          1
6
pbc=[F, F, F] list_num_par=6 frozen=false iter=20000 energy=-1.26974174 Lattice="15.00000000 0.00000000 0.00000000 0.00000000 15.00000000 0.00000000 0.00000000 0.00000000 15.00000000" energy_frozen_part=0.00000000 Properties=species:S:1:pos:R:3:velocities:R:3:Z:I:1
H         4.39094045       5.35049723      13.42034177         0.00000000       0.00000000       0.00000000          1
H         4.77948107       7.22535969      11.38608222         0.00000000       0.00000000       0.00000000          1
H         5.51295538       4.55941580      10.98732220         0.00000000       0.00000000       0.00000000          1
H         7.09201657       4.64941381      13.29009240         0.00000000       0.00000000       0.00000000          1
H         7.48056056       6.52428332      11.25584390         0.00000000       0.00000000       0.00000000          1
H         6.35854602       7.31536420      13.68885163         0.00000000       0.00000000       0.00000000          1
6
pbc=[F, F, F] list_num_par=6 frozen=false iter=20000 energy=-1.26974174 Lattice="15.00000000 0.00000000 0.00000000 0.00000000 15.00000000 0.00000000 0.00000000 0.00000000 15.00000000" energy_frozen_part=0.00000000 Properties=species:S:1:pos:R:3:velocities:R:3:Z:I:1
H         8.99260962       1.76658312       3.81813889         0.00000000       0.00000000       0.00000000          1
H         6.45464443       2.93331826       3.86001886         0.00000000       0.00000000       0.00000000          1
H         7.61782999       5.46890229       3.71136962         0.00000000       0.00000000       0.00000000          1
H         8.23444651       3.53458027       1.79239284         0.00000000       0.00000000       0.00000000          1
H         8.37599493       3.70090090       5.73711263         0.00000000       0.00000000       0.00000000          1
H        10.15579932       4.30216758       3.66949689         0.00000000       0.00000000       0.00000000          1
6
pbc=[F, F, F] list_num_par=6 frozen=false iter=20000 energy=-1.26974174 Lattice="15.00000000 0.00000000 0.00000000 0.00000000 15.00000000 0.00000000 0.00000000 0.00000000 15.00000000" energy_frozen_part=0.00000000 Properties=species:S:1:pos:R:3:velocities:R:3:Z:I:1
H         4.39096347       5.35046355      13.42036841         0.00000000       0.00000000       0.00000000          1
H         4.77946678       7.22532720      11.38610761         0.00000000       0.00000000       0.00000000          1
H         5.51296244       4.55938245      10.98735173         0.00000000       0.00000000       0.00000000          1
H         7.09204625       4.64940831      13.29010348         0.00000000       0.00000000       0.00000000          1
H         7.48054814       6.52427186      11.25583156         0.00000000       0.00000000       0.00000000          1
H         6.35855565       7.31535621      13.68886047         0.00000000       0.00000000       0.00000000          1
6
pbc=[F, F, F] list_num_par=6 frozen=false iter=20000 energy=-1.26974174 Lattice="15.00000000 0.00000000 0.00000000 0.00000000 15.00000000 0.00000000 0.00000000 0.00000000 15.00000000" energy_frozen_part=0.00000000 Properties=species:S:1:pos:R:3:velocities:R:3:Z:I:1
H         4.39144057       5.35070594      13.42087556         0.00000000       0.00000000       0.00000000          1
H         4.77898008       7.22515466      11.38604928         0.00000000       0.00000000       0.00000000          1
H         5.51318187       4.55932548      10.98783216         0.00000000       0.00000000       0.00000000          1
H         7.09270268       4.65040453      13.29024867         0.00000000       0.00000000       0.00000000          1
H         7.48024554       6.52485864      11.25542132         0.00000000       0.00000000       0.00000000          1
H         6.35850873       7.31624010      13.68845917         0.00000000       0.00000000       0.00000000          1
6
pbc=[F, F, F] list_num_par=6 frozen=false iter=20000 energy=-1.26974174 Lattice="15.00000000 0.00000000 0.00000000 0.00000000 15.00000000 0.00000000 0.00000000 0.00000000 15.00000000" energy_frozen_part=0.00000000 Properties=species:S:1:pos:R:3:velocities:R:3:Z:I:1
H         4.39097215       5.35044638      13.42034818         0.00000000       0.00000000       0.00000000          1
H         4.77950117       7.22533619      11.38611241         0.00000000       0.00000000       0.00000000          1
H         5.51302750       4.55939092      10.98734573         0.00000000       0.00000000       0.00000000          1
H         7.09206307       4.64941665      13.29013529         0.00000000       0.00000000       0.00000000          1
H         7.48059022       6.52430025      11.25589472         0.00000000       0.00000000       0.00000000          1
H         6.35853767       7.31535464      13.68889940         0.00000000       0.00000000       0.00000000          1
6
pbc=[F, F, F] list_num_par=6 frozen=false iter=20000 energy=-1.26974174 Lattice="15.00000000 0.00000000 0.00000000 0.00000000 15.00000000 0.00000000 0.00000000 0.00000000 15.00000000" energy_frozen_part=0.00000000 Properties=species:S:1:pos:R:3:velocities:R:3:Z:I:1
H         8.99265182       1.76657918       3.81816940         0.00000000       0.00000000       0.00000000          1
H         6.45467203       2.93326818       3.86004915         0.00000000       0.00000000       0.00000000          1
H         7.61780634       5.46887188       3.71137560         0.00000000       0.00000000       0.00000000          1
H         8.23445461       3.53454670       1.79240861         0.00000000       0.00000000       0.00000000          1
H         8.37602125       3.70090302       5.73713710         0.00000000       0.00000000       0.00000000          1
H        10.15579215       4.30218306       3.66949530         0.00000000       0.00000000       0.00000000          1
6
pbc=[F, F, F] list_num_par=6 frozen=false iter=20000 energy=-1.26974174 Lattice="15.00000000 0.00000000 0.00000000 0.00000000 15.00000000 0.00000000 0.00000000 0.00000000 15.00000000" energy_frozen_part=0.00000000 Properties=species:S:1:pos:R:3:velocities:R:3:Z:I:1
H         4.39163899       5.35021326      13.42052828         0.00000000       0.00000000       0.00000000          1
H         4.77926560       7.22502983      11.38605334         0.00000000       0.00000000       0.00000000          1
H         5.51342088       4.55925771      10.98736696         0.00000000       0.00000000       0.00000000          1
H         7.09289393       4.64990076      13.28983204         0.00000000       0.00000000       0.00000000          1
H         7.48051332       6.52471605      11.25536106         0.00000000       0.00000000       0.00000000          1
H         6.35872907       7.31567573      13.68851759         0.00000000       0.00000000       0.00000000          1
6
pbc=[F, F, F] list_num_par=6 frozen=false iter=20000 energy=-1.26974174 Lattice="15.00000000 0.00000000 0.00000000 0.00000000 15.00000000 0.00000000 0.00000000 0.00000000 15.00000000" energy_frozen_part=0.00000000 Properties=species:S:1:pos:R:3:velocities:R:3:Z:I:1
H         4.39165720       5.35018837      13.42053608         0.00000000       0.00000000       0.00000000          1
H         4.77923749       7.22498455      11.38603220         0.00000000       0.00000000       0.00000000          1
H         5.51343371       4.55921335      10.98736841         0.00000000       0.00000000       0.00000000          1
H         7.09291797       4.64990349      13.28981974         0.00000000       0.00000000       0.00000000          1
H         7.48049883       6.52470115      11.25532191         0.00000000       0.00000000       0.00000000          1
H         6.35872666       7.31566894      13.68848330         0.00000000       0.00000000       0.00000000          1
6
pbc=[F, F, F] list_num_par=6 frozen=false iter=20000 energy=-1.26974174 Lattice="15.00000000 0.00000000 0.00000000 0.00000000 15.00000000 0.00000000 0.00000000 0.00000000 15.00000000" energy_frozen_part=0.00000000 Properties=species:S:1:pos:R:3:velocities:R:3:Z:I:1
H         4.39092352       5.35048194      13.42034344         0.00000000       0.00000000       0.00000000          1
H         4.77947839       7.22534259      11.38608070         0.00000000       0.00000000       0.00000000          1
H         5.51296217       4.55939188      10.98734359         0.00000000       0.00000000       0.00000000          1
H         7.09200036       4.64941007      13.29012350         0.00000000       0.00000000       0.00000000          1
H         7.48056073       6.52426290      11.25586304         0.00000000       0.00000000       0.00000000          1
H         6.35851831       7.31536114      13.68885722         0.00000000       0.00000000       0.00000000          1
6
pbc=[F, F, F] list_num_par=6 frozen=false iter=20000 energy=-1.26974174 Lattice="15.00000000 0.00000000 0.00000000 0.00000000 15.00000000 0.00000000 0.00000000 0.00000000 15.00000000" energy_frozen_part=0.00000000 Properties=species:S:1:pos:R:3:velocities:R:3:Z:I:1
H         4.39097098       5.35045483      13.42034687         0.00000000       0.00000000       0.00000000          1
H         4.77950037       7.22533849      11.38610711         0.00000000       0.00000000       0.00000000          1
H         5.51303560       4.55939822      10.98734547         0.00000000       0.00000000       0.00000000          1
H         7.09206298       4.64942677      13.29014136         0.00000000       0.00000000       0.00000000          1
H         7.48059147       6.52430611      11.25589451         0.00000000       0.00000000       0.00000000          1
H         6.35852941       7.31535971      13.68889884         0.00000000       0.00000000       0.00000000          1
6
pbc=[F, F, F] list_num_par=6 frozen=false iter=20000 energy=-1.26974174 Lattice="15.00000000 0.00000000 0.00000000 0.00000000 15.00000000 0.00000000 0.00000000 0.00000000 15.00000000" energy_frozen_part=0.00000000 Properties=species:S:1:pos:R:3:velocities:R:3:Z:I:1
H         4.39146196       5.35066633      13.42087421         0.00000000       0.00000000       0.00000000          1
H         4.77901135       7.22515050      11.38607804         0.00000000       0.00000000       0.00000000          1
H         5.51326062       4.55933241      10.98784382         0.00000000       0.00000000       0.00000000          1
H         7.09273730       4.65042854      13.29028234         0.00000000       0.00000000       0.00000000          1
H         7.48028596       6.52490206      11.25548742         0.00000000       0.00000000       0.00000000          1
H         6.35848316       7.31624083      13.68851867         0.00000000       0.00000000       0.00000000          1
6
pbc=[F, F, F] list_num_par=6 frozen=false iter=20000 energy=-1.26974174 Lattice="15.00000000 0.00000000 0.00000000 0.00000000 15.00000000 0.00000000 0.00000000 0.00000000 15.00000000" energy_frozen_part=0.00000000 Properties=species:S:1:pos:R:3:velocities:R:3:Z:I:1
H         4.25569164       6.04027226      13.89035880         0.00000000       0.00000000       0.00000000          1
H         4.74740292       6.95187749      11.29585334         0.00000000       0.00000000       0.00000000          1
H         5.01979957       4.23750651      11.89774850         0.00000000       0.00000000       0.00000000          1
H         6.79275077       4.87295358      13.96102672         0.00000000       0.00000000       0.00000000          1
H         7.28446358       5.78456616      11.36651914         0.00000000       0.00000000       0.00000000          1
H         6.52035375       7.58732551      13.35913103         0.00000000       0.00000000       0.00000000          1
6
pbc=[F, F, F] list_num_par=6 frozen=false iter=20000 energy=-1.26974174 Lattice="15.00000000 0.00000000 0.00000000 0.00000000 15.00000000 0.00000000 0.00000000 0.00000000 15.00000000" energy_frozen_part=0.00000000 Properties=species:S:1:pos:R:3:velocities:R:3:Z:I:1
H         4.39159886       5.35021947      13.42053717         0.00000000       0.00000000       0.00000000          1
H         4.77923480       7.22504398      11.38606720         0.00000000       0.00000000       0.00000000          1
H         5.51337869       4.55927020      10.98736900         0.00000000       0.00000000       0.00000000          1
H         7.09284598       4.64988836      13.28983346         0.00000000       0.00000000       0.00000000          1
H         7.48047870       6.52471785      11.25536497         0.00000000       0.00000000       0.00000000          1
H         6.35870782       7.31566441      13.68853714         0.00000000       0.00000000       0.00000000          1
6
pbc=[F, F, F] list_num_par=6 frozen=false iter=20000 energy=-1.26974174 Lattice="15.00000000 0.00000000 0.00000000 0.00000000 15.00000000 0.00000000 0.00000000 0.00000000 15.00000000" energy_frozen_part=0.00000000 Properties=species:S:1:pos:R:3:velocities:R:3:Z:I:1
H         4.25572951       6.04023840      13.89037270         0.00000000       0.00000000       0.00000000          1
H         4.74739827       6.95188403      11.29586510         0.00000000       0.00000000       0.00000000          1
H         5.01979848       4.23750571      11.89772890         0.00000000       0.00000000       0.00000000          1
H         6.79278610       4.87291536      13.96099450         0.00000000       0.00000000       0.00000000          1
H         7.28445619       5.78456393      11.36648989         0.00000000       0.00000000       0.00000000          1
H         6.52038200       7.58729419      13.35913890         0.00000000       0.00000000       0.00000000          1
6
pbc=[F, F, F] list_num_par=6 frozen=false iter=20000 energy=-1.26974174 Lattice="15.00000000 0.00000000 0.00000000 0.00000000 15.00000000 0.00000000 0.00000000 0.00000000 15.00000000" energy_frozen_part=0.00000000 Properties=species:S:1:pos:R:3:velocities:R:3:Z:I:1
H         4.25574296       6.04025635      13.89033817         0.00000000       0.00000000       0.00000000          1
H         4.74744431       6.95190512      11.29584086         0.00000000       0.00000000       0.00000000          1
H         5.01982099       4.23752204      11.89770314         0.00000000       0.00000000       0.00000000          1
H         6.79279060       4.87291450      13.96097952         0.00000000       0.00000000       0.00000000          1
H         7.28449252       5.78456718      11.36648532         0.00000000       0.00000000       0.00000000          1
H         6.52041737       7.58730275      13.35912636         0.00000000       0.00000000       0.00000000          1
6
pbc=[F, F, F] list_num_par=6 frozen=false iter=20000 energy=-1.26974174 Lattice="15.00000000 0.00000000 0.00000000 0.00000000 15.00000000 0.00000000 0.00000000 0.00000000 15.00000000" energy_frozen_part=0.00000000 Properties=species:S:1:pos:R:3:velocities:R:3:Z:I:1
H         8.99263529       1.76658814       3.81813836         0.00000000       0.00000000       0.00000000          1
H         6.45465637       2.93330375       3.85998959         0.00000000       0.00000000       0.00000000          1
H         7.61783233       5.46889677       3.71139805         0.00000000       0.00000000       0.00000000          1
H         8.23449119       3.53461292       1.79240485         0.00000000       0.00000000       0.00000000          1
H         8.37596951       3.70087502       5.73713263         0.00000000       0.00000000       0.00000000          1
H        10.15581025       4.30217881       3.66955416         0.00000000       0.00000000       0.00000000          1
6
pbc=[F, F, F] list_num_par=6 frozen=false iter=20000 energy=-1.26974174 Lattice="15.00000000 0.00000000 0.00000000 0.00000000 15.00000000 0.00000000 0.00000000 0.00000000 15.00000000" energy_frozen_part=0.00000000 Properties=species:S:1:pos:R:3:velocities:R:3:Z:I:1
H         8.99262694       1.76658807       3.81813861         0.00000000       0.00000000       0.00000000          1
H         6.45466095       2.93332139       3.86002050         0.00000000       0.00000000       0.00000000          1
H         7.61784667       5.46890510       3.71136750         0.00000000       0.00000000       0.00000000          1
H         8.23445341       3.53457496       1.79238934         0.00000000       0.00000000       0.00000000          1
H         8.37601164       3.70090552       5.73711868         0.00000000       0.00000000       0.00000000          1
H        10.15580616       4.30217404       3.66948336         0.00000000       0.00000000       0.00000000          1
6
pbc=[F, F, F] list_num_par=6 frozen=false iter=20000 energy=-1.26974174 Lattice="15.00000000 0.00000000 0.00000000 0.00000000 15.00000000 0.00000000 0.00000000 0.00000000 15.00000000" energy_frozen_part=0.00000000 Properties=species:S:1:pos:R:3:velocities:R:3:Z:I:1
H         4.25571113       6.04025492      13.89035187         0.00000000       0.00000000       0.00000000          1
H         4.74738849       6.95189124      11.29585002         0.00000000       0.00000000       0.00000000          1
H         5.01976939       4.23751568      11.89771523         0.00000000       0.00000000       0.00000000          1
H         6.79275722       4.87291466      13.96098111         0.00000000       0.00000000       0.00000000          1
H         7.28444096       5.78455535      11.36647893         0.00000000       0.00000000       0.00000000          1
H         6.52038427       7.58729501      13.35911584         0.00000000       0.00000000       0.00000000          1
6
pbc=[F, F, F] list_num_par=6 frozen=false iter=20000 energy=-1.26974174 Lattice="15.00000000 0.00000000 0.00000000 0.00000000 15.00000000 0.00000000 0.00000000 0.00000000 15.00000000" energy_frozen_part=0.00000000 Properties=species:S:1:pos:R:3:velocities:R:3:Z:I:1
H         4.39161114       5.35020883      13.42052242         0.00000000       0.00000000       0.00000000          1
H         4.77924568       7.22504088      11.38605793         0.00000000       0.00000000       0.00000000          1
H         5.51340281       4.55927048      10.98736447         0.00000000       0.00000000       0.00000000          1
H         7.09286491       4.64988765      13.28983483         0.00000000       0.00000000       0.00000000          1
H         7.48050111       6.52472137      11.25537525         0.00000000       0.00000000       0.00000000          1
H         6.35870853       7.31565749      13.68853571         0.00000000       0.00000000       0.00000000          1
6
pbc=[F, F, F] list_num_par=6 frozen=false iter=20000 energy=-1.26974174 Lattice="15.00000000 0.00000000 0.00000000 0.00000000 15.00000000 0.00000000 0.00000000 0.00000000 15.00000000" energy_frozen_part=0.00000000 Properties=species:S:1:pos:R:3:velocities:R:3:Z:I:1
H         4.25570867       6.04025269      13.89037754         0.00000000       0.00000000       0.00000000          1
H         4.74739581       6.95187076      11.29586385         0.00000000       0.00000000       0.00000000          1
H         5.01977421       4.23749709      11.89775215         0.00000000       0.00000000       0.00000000          1
H         6.79275721       4.87292082      13.96102402         0.00000000       0.00000000       0.00000000          1
H         7.28444265       5.78453570      11.36650864         0.00000000       0.00000000       0.00000000          1
H         6.52037207       7.58729368      13.35913113         0.00000000       0.00000000       0.00000000          1
6
pbc=[F, F, F] list_num_par=6 frozen=false iter=20000 energy=-1.26974174 Lattice="15.00000000 0.00000000 0.00000000 0.00000000 15.00000000 0.00000000 0.00000000 0.00000000 15.00000000" energy_frozen_part=0.00000000 Properties=species:S:1:pos:R:3:velocities:R:3:Z:I:1
H         4.39097328       5.35044995      13.42035933         0.00000000       0.00000000       0.00000000          1
H         4.77948985       7.22534738      11.38611951         0.00000000       0.00000000       0.00000000          1
H         5.51301333       4.55941494      10.98734612         0.00000000       0.00000000       0.00000000          1
H         7.09205905       4.64943313      13.29012395         0.00000000       0.00000000       0.00000000          1
H         7.48058049       6.52431984      11.25588758         0.00000000       0.00000000       0.00000000          1
H         6.35853410       7.31536531      13.68889928         0.00000000       0.00000000       0.00000000          1
6
pbc=[F, F, F] list_num_par=6 frozen=false iter=20000 energy=-1.26974174 Lattice="15.00000000 0.00000000 0.00000000 0.00000000 15.00000000 0.00000000 0.00000000 0.00000000 15.00000000" energy_frozen_part=0.00000000 Properties=species:S:1:pos:R:3:velocities:R:3:Z:I:1
H         4.25573709       6.04027606      13.89034215         0.00000000       0.00000000       0.00000000          1
H         4.74743632       6.95192163      11.29583989         0.00000000       0.00000000       0.00000000          1
H         5.01974097       4.23752982      11.89768744         0.00000000       0.00000000       0.00000000          1
H         6.79275582       4.87287472      13.96095465         0.00000000       0.00000000       0.00000000          1
H         7.28444978       5.78451006      11.36644649         0.00000000       0.00000000       0.00000000          1
H         6.52044534       7.58726134      13.35910446         0.00000000       0.00000000       0.00000000          1
6
pbc=[F, F, F] list_num_par=6 frozen=false iter=20000 energy=-1.26974174 Lattice="15.00000000 0.00000000 0.00000000 0.00000000 15.00000000 0.00000000 0.00000000 0.00000000 15.00000000" energy_frozen_part=0.00000000 Properties=species:S:1:pos:R:3:velocities:R:3:Z:I:1
H         4.39104893       5.35040714      13.42045030         0.00000000       0.00000000       0.00000000          1
H         4.77945305       7.22528539      11.38617188         0.00000000       0.00000000       0.00000000          1
H         5.51307053       4.55936829      10.98742642         0.00000000       0.00000000       0.00000000          1
H         7.09216984       4.64948070      13.29016793         0.00000000       0.00000000       0.00000000          1
H         7.48056453       6.52435481      11.25589274         0.00000000       0.00000000       0.00000000          1
H         6.35854382       7.31539312      13.68891513         0.00000000       0.00000000       0.00000000          1
6
pbc=[F, F, F] list_num_par=6 frozen=false iter=20000 energy=-1.26974174 Lattice="15.00000000 0.00000000 0.00000000 0.00000000 15.00000000 0.00000000 0.00000000 0.00000000 15.00000000" energy_frozen_part=0.00000000 Properties=species:S:1:pos:R:3:velocities:R:3:Z:I:1
H         4.39144830       5.35069284      13.42088081         0.00000000       0.00000000       0.00000000          1
H         4.77897604       7.22516217      11.38606265         0.00000000       0.00000000       0.00000000          1
H         5.51317905       4.55933525      10.98781788         0.00000000       0.00000000       0.00000000          1
H         7.09270841       4.65040608      13.29023004         0.00000000       0.00000000       0.00000000          1
H         7.48023784       6.52487501      11.25541572         0.00000000       0.00000000       0.00000000          1
H         6.35851031       7.31623049      13.68846822         0.00000000       0.00000000       0.00000000          1
6
pbc=[F, F, F] list_num_par=6 frozen=false iter=20000 energy=-1.26974174 Lattice="15.00000000 0.00000000 0.00000000 0.00000000 15.00000000 0.00000000 0.00000000 0.00000000 15.00000000" energy_frozen_part=0.00000000 Properties=species:S:1:pos:R:3:velocities:R:3:Z:I:1
H         4.39161045       5.35021694      13.42053109         0.00000000       0.00000000       0.00000000          1
H         4.77923771       7.22505162      11.38606707         0.00000000       0.00000000       0.00000000          1