6
pbc=[F, F, F] list_num_par=6 frozen=false iter=9 energy=9.48390777 Lattice="15.00000000 0.00000000 0.00000000 0.00000000 15.00000000 0.00000000 0.00000000 0.00000000 15.00000000" energy_frozen_part=0.00000000 Properties=species:S:1:pos:R:3:velocities:R:3:Z:I:1
H         2.85160936      12.76881431       2.25250159         0.00000000       0.00000000       0.00000000          1
H         0.41612530      11.20374078       9.48316210         0.00000000       0.00000000       0.00000000          1
H         2.91617704      13.44720890       5.25037890         0.00000000       0.00000000       0.00000000          1
H         8.18172578       7.29901829      11.10519262         0.00000000       0.00000000       0.00000000          1
H         3.75341396       1.76705307       2.55431899         0.00000000       0.00000000       0.00000000          1
H         2.10613602      12.01390490       3.83614511         0.00000000       0.00000000       0.00000000          1
6
pbc=[F, F, F] list_num_par=6 frozen=false iter=19 energy=0.16294962 Lattice="15.00000000 0.00000000 0.00000000 0.00000000 15.00000000 0.00000000 0.00000000 0.00000000 15.00000000" energy_frozen_part=0.00000000 Properties=species:S:1:pos:R:3:velocities:R:3:Z:I:1
H         2.50490773       4.44698760       6.46808645         0.00000000       0.00000000       0.00000000          1
H         5.88529699       3.58163131      14.40438525         0.00000000       0.00000000       0.00000000          1
H        11.31724303       5.39422322       9.30377198         0.00000000       0.00000000       0.00000000          1
H         8.53286401       2.23357445       3.08794541         0.00000000       0.00000000       0.00000000          1
H         4.10834169       5.63810873       9.38549153         0.00000000       0.00000000       0.00000000          1
H         2.61171042       6.79494044       6.47060193         0.00000000       0.00000000       0.00000000          1
6
pbc=[F, F, F] list_num_par=6 frozen=false iter=29 energy=-0.00191714 Lattice="15.00000000 0.00000000 0.00000000 0.00000000 15.00000000 0.00000000 0.00000000 0.00000000 15.00000000" energy_frozen_part=0.00000000 Properties=species:S:1:pos:R:3:velocities:R:3:Z:I:1
H        14.05940909      13.98194541       1.13090605         0.00000000       0.00000000       0.00000000          1
H         0.97530098       0.56627376      13.42868096         0.00000000       0.00000000       0.00000000          1
H         7.15722548       6.36640332       5.95558915         0.00000000       0.00000000       0.00000000          1
H        13.82678596       2.54892263       7.56112013         0.00000000       0.00000000       0.00000000          1
H         4.71570721       9.48163738       0.14391248         0.00000000       0.00000000       0.00000000          1
H        11.74056568       4.68026773      13.75405702         0.00000000       0.00000000       0.00000000          1
6
pbc=[F, F, F] list_num_par=6 frozen=false iter=39 energy=-0.00352898 Lattice="15.00000000 0.00000000 0.00000000 0.00000000 15.00000000 0.00000000 0.00000000 0.00000000 15.00000000" energy_frozen_part=0.00000000 Properties=species:S:1:pos:R:3:velocities:R:3:Z:I:1
H         1.06882975       4.05768354       9.66293577         0.00000000       0.00000000       0.00000000          1
H         3.29636317      11.44564642       0.80807191         0.00000000       0.00000000       0.00000000          1
H         3.28313342      11.66130836      10.73367997         0.00000000       0.00000000       0.00000000          1
H        13.27143286       0.69269822       5.83737985         0.00000000       0.00000000       0.00000000          1
H        14.80671016      12.14969952       0.50148160         0.00000000       0.00000000       0.00000000          1
H        14.98690335       8.66270220       4.88638624         0.00000000       0.00000000       0.00000000          1
6
pbc=[F, F, F] list_num_par=6 frozen=false iter=49 energy=-0.00565509 Lattice="15.00000000 0.00000000 0.00000000 0.00000000 15.00000000 0.00000000 0.00000000 0.00000000 15.00000000" energy_frozen_part=0.00000000 Properties=species:S:1:pos:R:3:velocities:R:3:Z:I:1
H        13.88021342       6.62607264      11.28142796         0.00000000       0.00000000       0.00000000          1
H        14.29457715      13.04423263       8.90982437         0.00000000       0.00000000       0.00000000          1
H         8.86338881       2.91564276       2.83446351         0.00000000       0.00000000       0.00000000          1
H         1.89603335       7.79147879       7.42020552         0.00000000       0.00000000       0.00000000          1
H         3.48083813       3.09170633       2.49524746         0.00000000       0.00000000       0.00000000          1
H         0.68078805      12.51293095       0.87208709         0.00000000       0.00000000       0.00000000          1
6
pbc=[F, F, F] list_num_par=6 frozen=false iter=59 energy=-0.01011691 Lattice="15.00000000 0.00000000 0.00000000 0.00000000 15.00000000 0.00000000 0.00000000 0.00000000 15.00000000" energy_frozen_part=0.00000000 Properties=species:S:1:pos:R:3:velocities:R:3:Z:I:1
H         4.21335772      14.47370923       8.20988276         0.00000000       0.00000000       0.00000000          1
H         6.00721204      14.38576794      13.23507791         0.00000000       0.00000000       0.00000000          1
H        10.64975445       5.19148643       0.25540326         0.00000000       0.00000000       0.00000000          1
H         1.70214362       9.90614581       1.75382104         0.00000000       0.00000000       0.00000000          1
H        10.44574250       0.42537061       1.89361748         0.00000000       0.00000000       0.00000000          1
H        12.75300641      13.45801033       5.52026680         0.00000000       0.00000000       0.00000000          1
6
pbc=[F, F, F] list_num_par=6 frozen=false iter=69 energy=-0.01150767 Lattice="15.00000000 0.00000000 0.00000000 0.00000000 15.00000000 0.00000000 0.00000000 0.00000000 15.00000000" energy_frozen_part=0.00000000 Properties=species:S:1:pos:R:3:velocities:R:3:Z:I:1
H         6.83767925       8.89797475      10.98400374         0.00000000       0.00000000       0.00000000          1
H         6.64338631       6.88231369       3.97860793         0.00000000       0.00000000       0.00000000          1
H        10.84931875      13.87404602      10.72698470         0.00000000       0.00000000       0.00000000          1
H        10.71606769       9.24441319       6.49973721         0.00000000       0.00000000       0.00000000          1
H         1.33039735      11.06723368      12.17860891         0.00000000       0.00000000       0.00000000          1
H         2.19015422       0.31179102       9.10008324         0.00000000       0.00000000       0.00000000          1
6
pbc=[F, F, F] list_num_par=6 frozen=false iter=79 energy=-0.01355190 Lattice="15.00000000 0.00000000 0.00000000 0.00000000 15.00000000 0.00000000 0.00000000 0.00000000 15.00000000" energy_frozen_part=0.00000000 Properties=species:S:1:pos:R:3:velocities:R:3:Z:I:1
H         0.08010692       0.44096304      12.32005282         0.00000000       0.00000000       0.00000000          1
H         7.14230411      13.92234401       1.02663616         0.00000000       0.00000000       0.00000000          1
H         8.90747993       2.22236585       7.32616982         0.00000000       0.00000000       0.00000000          1
H         2.79401932       8.02866982      13.55680900         0.00000000       0.00000000       0.00000000          1
H         7.22957955       8.57297724       5.51131290         0.00000000       0.00000000       0.00000000          1
H         7.27613238       7.68165528       0.99762030         0.00000000       0.00000000       0.00000000          1
6
pbc=[F, F, F] list_num_par=6 frozen=false iter=89 energy=-0.01817234 Lattice="15.00000000 0.00000000 0.00000000 0.00000000 15.00000000 0.00000000 0.00000000 0.00000000 15.00000000" energy_frozen_part=0.00000000 Properties=species:S:1:pos:R:3:velocities:R:3:Z:I:1
H        14.01614035      12.68970720       1.10344501         0.00000000       0.00000000       0.00000000          1
H         8.86321990       8.24047004       2.77319141         0.00000000       0.00000000       0.00000000          1
H         5.84085515      12.16701859      12.86888543         0.00000000       0.00000000       0.00000000          1
H         2.46200469       9.61650108       7.57892329         0.00000000       0.00000000       0.00000000          1
H        10.03292749      11.92686998      14.77357623         0.00000000       0.00000000       0.00000000          1
H        13.29103043       6.04326353       1.60829879         0.00000000       0.00000000       0.00000000          1
6
pbc=[F, F, F] list_num_par=6 frozen=false iter=99 energy=-0.02332684 Lattice="15.00000000 0.00000000 0.00000000 0.00000000 15.00000000 0.00000000 0.00000000 0.00000000 15.00000000" energy_frozen_part=0.00000000 Properties=species:S:1:pos:R:3:velocities:R:3:Z:I:1
H         8.61725551      13.78269680       5.48569555         0.00000000       0.00000000       0.00000000          1
H         1.14879722       9.40776520       7.93494773         0.00000000       0.00000000       0.00000000          1
H         5.52621438       8.69853657       3.68291964         0.00000000       0.00000000       0.00000000          1
H         2.11809124       5.95250040       3.64625543         0.00000000       0.00000000       0.00000000          1
H         9.69946211       6.72045321       8.12211489         0.00000000       0.00000000       0.00000000          1
H         2.81652295       0.86671632       7.39907369         0.00000000       0.00000000       0.00000000          1
6
pbc=[F, F, F] list_num_par=6 frozen=false iter=109 energy=-0.02760704 Lattice="15.00000000 0.00000000 0.00000000 0.00000000 15.00000000 0.00000000 0.00000000 0.00000000 15.00000000" energy_frozen_part=0.00000000 Properties=species:S:1:pos:R:3:velocities:R:3:Z:I:1
H        13.62583112      13.13128529      11.41555917         0.00000000       0.00000000       0.00000000          1
H         4.75584658       7.45570960      12.78586611         0.00000000       0.00000000       0.00000000          1
H         3.51110541       0.12713679      12.79511146         0.00000000       0.00000000       0.00000000          1
H        10.75752740       5.75793851       9.07903862         0.00000000       0.00000000       0.00000000          1
H         9.53670159      13.20865725       3.70842666         0.00000000       0.00000000       0.00000000          1
H         6.52282765      13.58151182       1.27990428         0.00000000       0.00000000       0.00000000          1
6
pbc=[F, F, F] list_num_par=6 frozen=false iter=119 energy=-0.03319949 Lattice="15.00000000 0.00000000 0.00000000 0.00000000 15.00000000 0.00000000 0.00000000 0.00000000 15.00000000" energy_frozen_part=0.00000000 Properties=species:S:1:pos:R:3:velocities:R:3:Z:I:1
H        10.96889269       2.67992789       2.02703525         0.00000000       0.00000000       0.00000000          1
H         6.58517026       4.33187691      14.16107091         0.00000000       0.00000000       0.00000000          1
H        11.88946846       7.77012336       1.83577716         0.00000000       0.00000000       0.00000000          1
H         7.39330447       4.13790235       0.67065806         0.00000000       0.00000000       0.00000000          1
H         4.90884447      10.11122399       6.11989483         0.00000000       0.00000000       0.00000000          1
H         3.05555997       5.67605451       7.77012069         0.00000000       0.00000000       0.00000000          1
6
pbc=[F, F, F] list_num_par=6 frozen=false iter=129 energy=-0.03583958 Lattice="15.00000000 0.00000000 0.00000000 0.00000000 15.00000000 0.00000000 0.00000000 0.00000000 15.00000000" energy_frozen_part=0.00000000 Properties=species:S:1:pos:R:3:velocities:R:3:Z:I:1
H         9.52408835       7.16156944       8.30648892         0.00000000       0.00000000       0.00000000          1
H         2.52441329       5.43499989      13.27238839         0.00000000       0.00000000       0.00000000          1
H         0.41429240       8.28670764      12.21917885         0.00000000       0.00000000       0.00000000          1
H         3.14663463       4.71110047       0.90916530         0.00000000       0.00000000       0.00000000          1
H        13.41628727      14.80014622       3.60327134         0.00000000       0.00000000       0.00000000          1
H        11.64150626       5.52029896      14.11559622         0.00000000       0.00000000       0.00000000          1
6
pbc=[F, F, F] list_num_par=6 frozen=false iter=139 energy=-0.04177028 Lattice="15.00000000 0.00000000 0.00000000 0.00000000 15.00000000 0.00000000 0.00000000 0.00000000 15.00000000" energy_frozen_part=0.00000000 Properties=species:S:1:pos:R:3:velocities:R:3:Z:I:1
H        10.21700156       2.56159133       1.10123378         0.00000000       0.00000000       0.00000000          1
H         5.73240854       3.43066421      10.34431217         0.00000000       0.00000000       0.00000000          1
H         9.45724919      13.58490373       2.65761709         0.00000000       0.00000000       0.00000000          1
H         4.51268735       3.20439459       0.78532242         0.00000000       0.00000000       0.00000000          1
H         1.85858047       6.91028899       2.83982830         0.00000000       0.00000000       0.00000000          1
H         3.08255485       5.06893597       6.03845938         0.00000000       0.00000000       0.00000000          1
6
pbc=[F, F, F] list_num_par=6 frozen=false iter=149 energy=-0.04955917 Lattice="15.00000000 0.00000000 0.00000000 0.00000000 15.00000000 0.00000000 0.00000000 0.00000000 15.00000000" energy_frozen_part=0.00000000 Properties=species:S:1:pos:R:3:velocities:R:3:Z:I:1
H         1.30039758      13.44039472       9.94409933         0.00000000       0.00000000       0.00000000          1
H        13.05955480      12.19082513      12.37749521         0.00000000       0.00000000       0.00000000          1
H         0.35599563      11.67911355       6.00484106         0.00000000       0.00000000       0.00000000          1
H         6.14211217       2.16246466       1.88923615         0.00000000       0.00000000       0.00000000          1
H         4.37908091      12.66259595      11.90368333         0.00000000       0.00000000       0.00000000          1
H         0.38869911       6.05756486       6.24711258         0.00000000       0.00000000       0.00000000          1
6
pbc=[F, F, F] list_num_par=6 frozen=false iter=159 energy=-0.05403286 Lattice="15.00000000 0.00000000 0.00000000 0.00000000 15.00000000 0.00000000 0.00000000 0.00000000 15.00000000" energy_frozen_part=0.00000000 Properties=species:S:1:pos:R:3:velocities:R:3:Z:I:1
H         3.75658032       3.61355770       5.12513210         0.00000000       0.00000000       0.00000000          1
H         8.20118703       8.78286566      10.89798073         0.00000000       0.00000000       0.00000000          1
H         4.98202971       1.68609345      12.62280568         0.00000000       0.00000000       0.00000000          1
H         4.95016107       5.76257507       0.17178844         0.00000000       0.00000000       0.00000000          1
H         9.00001621       6.91246067      12.40521149         0.00000000       0.00000000       0.00000000          1
H         7.62697542       5.16338324       4.85349256         0.00000000       0.00000000       0.00000000          1
6
pbc=[F, F, F] list_num_par=6 frozen=false iter=169 energy=-0.05691429 Lattice="15.00000000 0.00000000 0.00000000 0.00000000 15.00000000 0.00000000 0.00000000 0.00000000 15.00000000" energy_frozen_part=0.00000000 Properties=species:S:1:pos:R:3:velocities:R:3:Z:I:1
H        10.13757641      12.20317457       2.81158430         0.00000000       0.00000000       0.00000000          1
H         0.65774978       7.97313548      12.73889874         0.00000000       0.00000000       0.00000000          1
H         7.71273414      11.85984342      13.44964263         0.00000000       0.00000000       0.00000000          1
H         5.69680993       7.07637582      11.07729761         0.00000000       0.00000000       0.00000000          1
H        14.09380565      10.46626488       7.33876915         0.00000000       0.00000000       0.00000000          1
H         6.64888793      14.15414462      13.03201055         0.00000000       0.00000000       0.00000000          1
6
pbc=[F, F, F] list_num_par=6 frozen=false iter=179 energy=-0.06241358 Lattice="15.00000000 0.00000000 0.00000000 0.00000000 15.00000000 0.00000000 0.00000000 0.00000000 15.00000000" energy_frozen_part=0.00000000 Properties=species:S:1:pos:R:3:velocities:R:3:Z:I:1
H        10.55171764       7.96439130       1.64802170         0.00000000       0.00000000       0.00000000          1
H         1.17059719      10.65618026       9.19982954         0.00000000       0.00000000       0.00000000          1
H         0.92372780       9.68965016      14.10993274         0.00000000       0.00000000       0.00000000          1
H         8.70188381      13.65583496       1.81098594         0.00000000       0.00000000       0.00000000          1
H         8.36424353       6.55035964       4.05190068         0.00000000       0.00000000       0.00000000          1
H         9.24882486       9.77398817       7.43113751         0.00000000       0.00000000       0.00000000          1
6
pbc=[F, F, F] list_num_par=6 frozen=false iter=189 energy=-0.06627213 Lattice="15.00000000 0.00000000 0.00000000 0.00000000 15.00000000 0.00000000 0.00000000 0.00000000 15.00000000" energy_frozen_part=0.00000000 Properties=species:S:1:pos:R:3:velocities:R:3:Z:I:1
H         1.14042203       6.28856614       5.11967886         0.00000000       0.00000000       0.00000000          1
H        14.88734188       7.57752578       3.91173939         0.00000000       0.00000000       0.00000000          1
H         0.32038356       8.45189001      12.25555440         0.00000000       0.00000000       0.00000000          1
H         0.50049105       8.11604183       8.46324079         0.00000000       0.00000000       0.00000000          1
H        14.79338234      12.35880369       4.86110638         0.00000000       0.00000000       0.00000000          1
H         3.39203910      11.19280486       2.44666629         0.00000000       0.00000000       0.00000000          1
6
pbc=[F, F, F] list_num_par=6 frozen=false iter=199 energy=-0.07100048 Lattice="15.00000000 0.00000000 0.00000000 0.00000000 15.00000000 0.00000000 0.00000000 0.00000000 15.00000000" energy_frozen_part=0.00000000 Properties=species:S:1:pos:R:3:velocities:R:3:Z:I:1
H         5.76625241       1.18402318       0.36623039         0.00000000       0.00000000       0.00000000          1
H        14.07325654       1.75579322      11.23530740         0.00000000       0.00000000       0.00000000          1
H         5.58321034      12.59832794       5.77350771         0.00000000       0.00000000       0.00000000          1
H         1.86843361       1.00205278       0.70012148         0.00000000       0.00000000       0.00000000          1
H         0.79946862       4.36616896       0.96243213         0.00000000       0.00000000       0.00000000          1
H         5.43431044       4.88767595       9.01621666         0.00000000       0.00000000       0.00000000          1
6
pbc=[F, F, F] list_num_par=6 frozen=false iter=209 energy=-0.07519624 Lattice="15.00000000 0.00000000 0.00000000 0.00000000 15.00000000 0.00000000 0.00000000 0.00000000 15.00000000" energy_frozen_part=0.00000000 Properties=species:S:1:pos:R:3:velocities:R:3:Z:I:1
H         3.75902611      14.33154903      14.39891455         0.00000000       0.00000000       0.00000000          1
H        10.23012565       0.19074316      10.76990657         0.00000000       0.00000000       0.00000000          1
H        11.82576005       6.65959741       1.39357618         0.00000000       0.00000000       0.00000000          1
H        13.28811259      13.60104735      13.21185702         0.00000000       0.00000000       0.00000000          1
H        13.60188378      10.72252951      11.81719397         0.00000000       0.00000000       0.00000000          1
H        12.89618951       4.70506868      10.63170203         0.00000000       0.00000000       0.00000000          1
6
pbc=[F, F, F] list_num_par=6 frozen=false iter=219 energy=-0.07946471 Lattice="15.00000000 0.00000000 0.00000000 0.00000000 15.00000000 0.00000000 0.00000000 0.00000000 15.00000000" energy_frozen_part=0.00000000 Properties=species:S:1:pos:R:3:velocities:R:3:Z:I:1
H         9.68900152      14.74777763       4.07630378         0.00000000       0.00000000       0.00000000          1
H         8.81290015       9.84545688      11.76475605         0.00000000       0.00000000       0.00000000          1
H         7.02337947      14.21338051      10.54777469         0.00000000       0.00000000       0.00000000          1
H         8.23124015      10.42394145      14.23422652         0.00000000       0.00000000       0.00000000          1
H         2.66282728       2.86970492      12.31694618         0.00000000       0.00000000       0.00000000          1
H         0.20657508       3.02975029       5.79125055         0.00000000       0.00000000       0.00000000          1
6
pbc=[F, F, F] list_num_par=6 frozen=false iter=229 energy=-0.08295071 Lattice="15.00000000 0.00000000 0.00000000 0.00000000 15.00000000 0.00000000 0.00000000 0.00000000 15.00000000" energy_frozen_part=0.00000000 Properties=species:S:1:pos:R:3:velocities:R:3:Z:I:1
H         9.00954183       3.41110085       4.95056459         0.00000000       0.00000000       0.00000000          1
H         0.86636361       1.98113479      11.95926994         0.00000000       0.00000000       0.00000000          1
H         8.90139250       5.13518262       9.84547785         0.00000000       0.00000000       0.00000000          1
H         1.78736858       1.24698038       4.44800591         0.00000000       0.00000000       0.00000000          1
H         7.05832228      10.35542347       0.62827645         0.00000000       0.00000000       0.00000000          1
H         3.77304627       3.53768934       5.44002574         0.00000000       0.00000000       0.00000000          1
6
pbc=[F, F, F] list_num_par=6 frozen=false iter=239 energy=-0.08526020 Lattice="15.00000000 0.00000000 0.00000000 0.00000000 15.00000000 0.00000000 0.00000000 0.00000000 15.00000000" energy_frozen_part=0.00000000 Properties=species:S:1:pos:R:3:velocities:R:3:Z:I:1
H         9.40203812       3.66571103       4.20257376         0.00000000       0.00000000       0.00000000          1
H         9.74876488       0.82673369       7.89916191         0.00000000       0.00000000       0.00000000          1
H         1.96065177      12.54616328       2.42758151         0.00000000       0.00000000       0.00000000          1
H         4.19916744       1.54527304      11.68245201         0.00000000       0.00000000       0.00000000          1
H         8.52102801       4.33434644       7.65410866         0.00000000       0.00000000       0.00000000          1
H         6.07532494      13.56220161       6.32508194         0.00000000       0.00000000       0.00000000          1
6
pbc=[F, F, F] list_num_par=6 frozen=false iter=249 energy=-0.08832937 Lattice="15.00000000 0.00000000 0.00000000 0.00000000 15.00000000 0.00000000 0.00000000 0.00000000 15.00000000" energy_frozen_part=0.00000000 Properties=species:S:1:pos:R:3:velocities:R:3:Z:I:1
H        11.73208367       8.02764882       6.78896303         0.00000000       0.00000000       0.00000000          1
H        11.54220866       7.66198433      10.79033089         0.00000000       0.00000000       0.00000000          1
H         7.23795749       2.90311812       9.62816042         0.00000000       0.00000000       0.00000000          1
H         8.35878252       6.40698538       8.28245423         0.00000000       0.00000000       0.00000000          1
H        10.97200731      10.08274717       1.03532173         0.00000000       0.00000000       0.00000000          1
H         8.51496276       2.33787718       1.08709524         0.00000000       0.00000000       0.00000000          1
6
pbc=[F, F, F] list_num_par=6 frozen=false iter=259 energy=-0.09309148 Lattice="15.00000000 0.00000000 0.00000000 0.00000000 15.00000000 0.00000000 0.00000000 0.00000000 15.00000000" energy_frozen_part=0.00000000 Properties=species:S:1:pos:R:3:velocities:R:3:Z:I:1
H         8.89383142       7.45533159       4.98925379         0.00000000       0.00000000       0.00000000          1
H        12.74303308       2.27086770      14.72808437         0.00000000       0.00000000       0.00000000          1
H         4.73623744      10.12879000       6.15174027         0.00000000       0.00000000       0.00000000          1
H         3.83684938       4.76255594      13.70935231         0.00000000       0.00000000       0.00000000          1
H         9.73035486      10.23992107       7.23819138         0.00000000       0.00000000       0.00000000          1
H         8.73404627      11.55509941      10.36660554         0.00000000       0.00000000       0.00000000          1
6
pbc=[F, F, F] list_num_par=6 frozen=false iter=269 energy=-0.09869074 Lattice="15.00000000 0.00000000 0.00000000 0.00000000 15.00000000 0.00000000 0.00000000 0.00000000 15.00000000" energy_frozen_part=0.00000000 Properties=species:S:1:pos:R:3:velocities:R:3:Z:I:1
H        13.50697878       6.54257065       5.95665327         0.00000000       0.00000000       0.00000000          1
H         2.04945062       0.16195596      12.06086782         0.00000000       0.00000000       0.00000000          1
H         0.57829891       4.64957797       2.34915705         0.00000000       0.00000000       0.00000000          1
H         3.58510656      14.80317008       2.25779398         0.00000000       0.00000000       0.00000000          1
H         2.76666453       2.80399995       2.43191428         0.00000000       0.00000000       0.00000000          1
H         4.20378683       9.70798659       9.66056329         0.00000000       0.00000000       0.00000000          1
6
pbc=[F, F, F] list_num_par=6 frozen=false iter=279 energy=-0.10055350 Lattice="15.00000000 0.00000000 0.00000000 0.00000000 15.00000000 0.00000000 0.00000000 0.00000000 15.00000000" energy_frozen_part=0.00000000 Properties=species:S:1:pos:R:3:velocities:R:3:Z:I:1
H         6.12578583      13.80846302       7.34911282         0.00000000       0.00000000       0.00000000          1
H         6.84040081      11.08809113       5.83567090         0.00000000       0.00000000       0.00000000          1
H         6.90288909       7.43206344       0.23635793         0.00000000       0.00000000       0.00000000          1
H         0.98147981       7.85118638       7.02886546         0.00000000       0.00000000       0.00000000          1
H         0.43166014       5.20165019       4.08534197         0.00000000       0.00000000       0.00000000          1
H         1.82962950      10.23677277      11.81891008         0.00000000       0.00000000       0.00000000          1
6
pbc=[F, F, F] list_num_par=6 frozen=false iter=289 energy=-0.10229028 Lattice="15.00000000 0.00000000 0.00000000 0.00000000 15.00000000 0.00000000 0.00000000 0.00000000 15.00000000" energy_frozen_part=0.00000000 Properties=species:S:1:pos:R:3:velocities:R:3:Z:I:1
H        14.37509512       6.28027530       1.66563677         0.00000000       0.00000000       0.00000000          1
H        12.30048705       7.63748665       3.34585416         0.00000000       0.00000000       0.00000000          1
H         8.40728681       2.88369111      14.05135025         0.00000000       0.00000000       0.00000000          1
H         4.38492110       5.48881055       0.51989888         0.00000000       0.00000000       0.00000000          1
H        14.94944320       2.77905821      14.84332838         0.00000000       0.00000000       0.00000000          1
H        14.21827083       6.93734577      13.21943240         0.00000000       0.00000000       0.00000000          1
6
pbc=[F, F, F] list_num_par=6 frozen=false iter=299 energy=-0.10488726 Lattice="15.00000000 0.00000000 0.00000000 0.00000000 15.00000000 0.00000000 0.00000000 0.00000000 15.00000000" energy_frozen_part=0.00000000 Properties=species:S:1:pos:R:3:velocities:R:3:Z:I:1
H         6.54801187      10.94532946       0.45834445         0.00000000       0.00000000       0.00000000          1
H        13.05860224       4.10214332       5.18893646         0.00000000       0.00000000       0.00000000          1
H         0.72542704      13.95050228       4.32942133         0.00000000       0.00000000       0.00000000          1
H         4.33784777      12.49607942       0.74188815         0.00000000       0.00000000       0.00000000          1
H        11.57056006      11.07649302       3.20197515         0.00000000       0.00000000       0.00000000          1
H         8.54652733       1.54655177       1.78023040         0.00000000       0.00000000       0.00000000          1
6
pbc=[F, F, F] list_num_par=6 frozen=false iter=309 energy=-0.10798523 Lattice="15.00000000 0.00000000 0.00000000 0.00000000 15.00000000 0.00000000 0.00000000 0.00000000 15.00000000" energy_frozen_part=0.00000000 Properties=species:S:1:pos:R:3:velocities:R:3:Z:I:1
H         1.68115155       5.60555122       6.79835072         0.00000000       0.00000000       0.00000000          1
H         5.58941729       4.36701059       9.05009810         0.00000000       0.00000000       0.00000000          1