6
pbc=[F, F, F] list_num_par=6 frozen=false iter=9 energy=128.16204037 Lattice="15.00000000 0.00000000 0.00000000 0.00000000 15.00000000 0.00000000 0.00000000 0.00000000 15.00000000" energy_frozen_part=0.00000000 Properties=species:S:1:pos:R:3:velocities:R:3:Z:I:1
H         8.41966829       9.86378248      13.03976470         0.00000000       0.00000000       0.00000000          1
H         7.79868837       9.19961221      11.79867365         0.00000000       0.00000000       0.00000000          1
H         4.66009180      14.53634982      11.48958405         0.00000000       0.00000000       0.00000000          1
H        13.03953417       3.20636871      10.60681032         0.00000000       0.00000000       0.00000000          1
H         2.73767150       3.07458807       2.65391816         0.00000000       0.00000000       0.00000000          1
H         0.75917582       5.71129255       4.97498362         0.00000000       0.00000000       0.00000000          1
6
pbc=[F, F, F] list_num_par=6 frozen=false iter=19 energy=9.58079187 Lattice="15.00000000 0.00000000 0.00000000 0.00000000 15.00000000 0.00000000 0.00000000 0.00000000 15.00000000" energy_frozen_part=0.00000000 Properties=species:S:1:pos:R:3:velocities:R:3:Z:I:1
H        14.55704888      11.76812823       7.80706636         0.00000000       0.00000000       0.00000000          1
H         9.33996079       7.80643885       3.47208846         0.00000000       0.00000000       0.00000000          1
H         6.68590559       7.35185409       5.73340267         0.00000000       0.00000000       0.00000000          1
H         0.41567561       4.37992349       2.76990942         0.00000000       0.00000000       0.00000000          1
H         6.40475843       9.01044240       4.88481654         0.00000000       0.00000000       0.00000000          1
H         8.02287128       9.24786488       0.48529782         0.00000000       0.00000000       0.00000000          1
6
pbc=[F, F, F] list_num_par=6 frozen=false iter=29 energy=0.34207222 Lattice="15.00000000 0.00000000 0.00000000 0.00000000 15.00000000 0.00000000 0.00000000 0.00000000 15.00000000" energy_frozen_part=0.00000000 Properties=species:S:1:pos:R:3:velocities:R:3:Z:I:1
H        14.44952037      10.79042420      14.84502038         0.00000000       0.00000000       0.00000000          1
H         1.73291894      12.53060452       0.57805744         0.00000000       0.00000000       0.00000000          1
H         6.88757806      10.61940632       7.90233240         0.00000000       0.00000000       0.00000000          1
H         5.25622091      12.06739914       4.23969258         0.00000000       0.00000000       0.00000000          1
H         4.94224796      11.77963462       6.49399181         0.00000000       0.00000000       0.00000000          1
H         8.56392375       3.85448430       5.49253387         0.00000000       0.00000000       0.00000000          1
6
pbc=[F, F, F] list_num_par=6 frozen=false iter=39 energy=-0.00513598 Lattice="15.00000000 0.00000000 0.00000000 0.00000000 15.00000000 0.00000000 0.00000000 0.00000000 15.00000000" energy_frozen_part=0.00000000 Properties=species:S:1:pos:R:3:velocities:R:3:Z:I:1
H         0.43272300      14.13310416       2.80677974         0.00000000       0.00000000       0.00000000          1
H        14.49025699       8.80695913       5.02926757         0.00000000       0.00000000       0.00000000          1
H         1.78753484      10.34032391      13.55216556         0.00000000       0.00000000       0.00000000          1
H         8.11437855       2.52804037      10.14456703         0.00000000       0.00000000       0.00000000          1
H         6.83552681       7.60905486       6.40054514         0.00000000       0.00000000       0.00000000          1
H        14.52672000       3.51675780       7.15949308         0.00000000       0.00000000       0.00000000          1
6
pbc=[F, F, F] list_num_par=6 frozen=false iter=49 energy=-0.00814127 Lattice="15.00000000 0.00000000 0.00000000 0.00000000 15.00000000 0.00000000 0.00000000 0.00000000 15.00000000" energy_frozen_part=0.00000000 Properties=species:S:1:pos:R:3:velocities:R:3:Z:I:1
H         3.32395505       5.10664492      10.47609548         0.00000000       0.00000000       0.00000000          1
H         9.85033500      11.14095009       7.01049414         0.00000000       0.00000000       0.00000000          1
H         7.96435049      13.55204437      12.43396863         0.00000000       0.00000000       0.00000000          1
H         3.03138458      10.59515281       4.50978584         0.00000000       0.00000000       0.00000000          1
H         5.20459978       0.48318986       6.33071742         0.00000000       0.00000000       0.00000000          1
H         1.00095261      14.78379056       2.08076873         0.00000000       0.00000000       0.00000000          1
6
pbc=[F, F, F] list_num_par=6 frozen=false iter=59 energy=-0.01351880 Lattice="15.00000000 0.00000000 0.00000000 0.00000000 15.00000000 0.00000000 0.00000000 0.00000000 15.00000000" energy_frozen_part=0.00000000 Properties=species:S:1:pos:R:3:velocities:R:3:Z:I:1
H         1.38356238       2.50423605       4.10867535         0.00000000       0.00000000       0.00000000          1
H         2.15327828      10.55264731      11.50842170         0.00000000       0.00000000       0.00000000          1
H         1.19354014       1.89683306       8.49238858         0.00000000       0.00000000       0.00000000          1
H         1.40537451      14.77821349       4.58288718         0.00000000       0.00000000       0.00000000          1
H        11.51859617       2.27641467       7.44552967         0.00000000       0.00000000       0.00000000          1
H         8.01582671       5.68277528      13.25685632         0.00000000       0.00000000       0.00000000          1
6
pbc=[F, F, F] list_num_par=6 frozen=false iter=69 energy=-0.01693059 Lattice="15.00000000 0.00000000 0.00000000 0.00000000 15.00000000 0.00000000 0.00000000 0.00000000 15.00000000" energy_frozen_part=0.00000000 Properties=species:S:1:pos:R:3:velocities:R:3:Z:I:1
H         4.75685333       6.88729882      13.34485389         0.00000000       0.00000000       0.00000000          1
H         5.70185820      14.27164243       2.75141087         0.00000000       0.00000000       0.00000000          1
H         0.99505447      12.59252656      13.16627906         0.00000000       0.00000000       0.00000000          1
H        10.20130320       9.51717843      11.59045013         0.00000000       0.00000000       0.00000000          1
H         4.26441623       2.48225678       2.65198130         0.00000000       0.00000000       0.00000000          1
H         5.27396166       8.39210013      11.40615420         0.00000000       0.00000000       0.00000000          1
6
pbc=[F, F, F] list_num_par=6 frozen=false iter=79 energy=-0.02046075 Lattice="15.00000000 0.00000000 0.00000000 0.00000000 15.00000000 0.00000000 0.00000000 0.00000000 15.00000000" energy_frozen_part=0.00000000 Properties=species:S:1:pos:R:3:velocities:R:3:Z:I:1
H         9.23554358      10.41840878      14.91071110         0.00000000       0.00000000       0.00000000          1
H         9.26485857      13.80411514       3.85871327         0.00000000       0.00000000       0.00000000          1
H         8.03337558       7.64193889       2.25123861         0.00000000       0.00000000       0.00000000          1
H        14.07171609      10.82131901      13.07581310         0.00000000       0.00000000       0.00000000          1
H         7.57663515       5.28064462       6.73329875         0.00000000       0.00000000       0.00000000          1
H         3.31513658       7.55310096       4.80136863         0.00000000       0.00000000       0.00000000          1
6
pbc=[F, F, F] list_num_par=6 frozen=false iter=89 energy=-0.02643616 Lattice="15.00000000 0.00000000 0.00000000 0.00000000 15.00000000 0.00000000 0.00000000 0.00000000 15.00000000" energy_frozen_part=0.00000000 Properties=species:S:1:pos:R:3:velocities:R:3:Z:I:1
H         4.52067108      14.42054195       0.75547880         0.00000000       0.00000000       0.00000000          1
H         7.52227143       0.57771923       1.93981046         0.00000000       0.00000000       0.00000000          1
H         6.98801077       6.39854569       3.49636966         0.00000000       0.00000000       0.00000000          1
H         2.41001975       7.13380497       4.83093508         0.00000000       0.00000000       0.00000000          1
H        11.20187668       0.89539415       5.90054439         0.00000000       0.00000000       0.00000000          1
H         1.67158712      10.71443159       0.55751824         0.00000000       0.00000000       0.00000000          1
6
pbc=[F, F, F] list_num_par=6 frozen=false iter=99 energy=-0.02884742 Lattice="15.00000000 0.00000000 0.00000000 0.00000000 15.00000000 0.00000000 0.00000000 0.00000000 15.00000000" energy_frozen_part=0.00000000 Properties=species:S:1:pos:R:3:velocities:R:3:Z:I:1
H         4.01020439       4.15739520       7.91981309         0.00000000       0.00000000       0.00000000          1
H         3.03429767       7.25658512      11.31260706         0.00000000       0.00000000       0.00000000          1
H         9.19458653       2.72926615       7.01714600         0.00000000       0.00000000       0.00000000          1
H        14.60989354       3.73715693       6.67128006         0.00000000       0.00000000       0.00000000          1
H        12.70324503      10.34030767       0.30289774         0.00000000       0.00000000       0.00000000          1
H        13.01047265       7.98079325       6.17322207         0.00000000       0.00000000       0.00000000          1
6
pbc=[F, F, F] list_num_par=6 frozen=false iter=109 energy=-0.03546812 Lattice="15.00000000 0.00000000 0.00000000 0.00000000 15.00000000 0.00000000 0.00000000 0.00000000 15.00000000" energy_frozen_part=0.00000000 Properties=species:S:1:pos:R:3:velocities:R:3:Z:I:1
H        13.38430914      14.21326128       0.74923252         0.00000000       0.00000000       0.00000000          1
H         0.23653284       9.81385026      14.75596026         0.00000000       0.00000000       0.00000000          1
H         4.24085060      10.31087109      11.57688681         0.00000000       0.00000000       0.00000000          1
H         6.64879643       2.62355487       1.77764143         0.00000000       0.00000000       0.00000000          1
H         3.48757253       6.52633744      12.23749151         0.00000000       0.00000000       0.00000000          1
H        10.06452096       8.79349735       6.21807500         0.00000000       0.00000000       0.00000000          1
6
pbc=[F, F, F] list_num_par=6 frozen=false iter=119 energy=-0.03854967 Lattice="15.00000000 0.00000000 0.00000000 0.00000000 15.00000000 0.00000000 0.00000000 0.00000000 15.00000000" energy_frozen_part=0.00000000 Properties=species:S:1:pos:R:3:velocities:R:3:Z:I:1
H        14.18671283       7.77834923      12.43169569         0.00000000       0.00000000       0.00000000          1
H         3.06886413       1.30722046      12.14300770         0.00000000       0.00000000       0.00000000          1
H        12.43840011       4.44161106      12.66414785         0.00000000       0.00000000       0.00000000          1
H         7.77245247      11.74945872      10.10328320         0.00000000       0.00000000       0.00000000          1
H         2.99875795       9.39618074      14.82345441         0.00000000       0.00000000       0.00000000          1
H         4.29630346      10.70821666       6.71389322         0.00000000       0.00000000       0.00000000          1
6
pbc=[F, F, F] list_num_par=6 frozen=false iter=129 energy=-0.04188144 Lattice="15.00000000 0.00000000 0.00000000 0.00000000 15.00000000 0.00000000 0.00000000 0.00000000 15.00000000" energy_frozen_part=0.00000000 Properties=species:S:1:pos:R:3:velocities:R:3:Z:I:1
H         8.98361185       4.43476468       1.93474536         0.00000000       0.00000000       0.00000000          1
H         8.44625210       1.09573803       3.30374345         0.00000000       0.00000000       0.00000000          1
H        10.93833773       8.65794101       4.83735552         0.00000000       0.00000000       0.00000000          1
H         1.54768661       1.42367075       1.94879860         0.00000000       0.00000000       0.00000000          1
H         3.47566287      13.32307888       3.93445777         0.00000000       0.00000000       0.00000000          1
H        10.76587882      14.67119133      11.55069024         0.00000000       0.00000000       0.00000000          1
6
pbc=[F, F, F] list_num_par=6 frozen=false iter=139 energy=-0.04357991 Lattice="15.00000000 0.00000000 0.00000000 0.00000000 15.00000000 0.00000000 0.00000000 0.00000000 15.00000000" energy_frozen_part=0.00000000 Properties=species:S:1:pos:R:3:velocities:R:3:Z:I:1
H        12.57244529      10.56933780      12.89810993         0.00000000       0.00000000       0.00000000          1
H         1.26469514      14.94255289       3.25932952         0.00000000       0.00000000       0.00000000          1
H        14.40518159       5.42422354      11.08193832         0.00000000       0.00000000       0.00000000          1
H        12.19793083       2.49179390       9.00732957         0.00000000       0.00000000       0.00000000          1
H         4.22145162      11.37578185       3.01539796         0.00000000       0.00000000       0.00000000          1
H         7.97921771       2.07496411       9.82556888         0.00000000       0.00000000       0.00000000          1
6
pbc=[F, F, F] list_num_par=6 frozen=false iter=149 energy=-0.05053035 Lattice="15.00000000 0.00000000 0.00000000 0.00000000 15.00000000 0.00000000 0.00000000 0.00000000 15.00000000" energy_frozen_part=0.00000000 Properties=species:S:1:pos:R:3:velocities:R:3:Z:I:1
H         9.46158800      14.96604067       2.65296620         0.00000000       0.00000000       0.00000000          1
H         6.65507109       7.63013674       7.80449211         0.00000000       0.00000000       0.00000000          1
H         6.91497494       0.54250354      12.38067107         0.00000000       0.00000000       0.00000000          1
H        12.51032773      13.45252559       0.42750680         0.00000000       0.00000000       0.00000000          1
H        12.20887991      13.74600178      10.88609485         0.00000000       0.00000000       0.00000000          1
H         8.24953543       4.14253177       7.59895054         0.00000000       0.00000000       0.00000000          1
6
pbc=[F, F, F] list_num_par=6 frozen=false iter=159 energy=-0.05833172 Lattice="15.00000000 0.00000000 0.00000000 0.00000000 15.00000000 0.00000000 0.00000000 0.00000000 15.00000000" energy_frozen_part=0.00000000 Properties=species:S:1:pos:R:3:velocities:R:3:Z:I:1
H         9.84035879       1.13598792      12.74892280         0.00000000       0.00000000       0.00000000          1
H         8.86054620       3.63218197       3.16273607         0.00000000       0.00000000       0.00000000          1
H         5.53200597      12.88484185       5.84530646         0.00000000       0.00000000       0.00000000          1
H        12.22362351       1.94788358       5.36909240         0.00000000       0.00000000       0.00000000          1
H         4.37291686      10.35612974       8.52826921         0.00000000       0.00000000       0.00000000          1
H        13.48918977       0.70005722      10.30682703         0.00000000       0.00000000       0.00000000          1
6
pbc=[F, F, F] list_num_par=6 frozen=false iter=169 energy=-0.06300976 Lattice="15.00000000 0.00000000 0.00000000 0.00000000 15.00000000 0.00000000 0.00000000 0.00000000 15.00000000" energy_frozen_part=0.00000000 Properties=species:S:1:pos:R:3:velocities:R:3:Z:I:1
H        14.10218335       3.13768503      10.05118226         0.00000000       0.00000000       0.00000000          1
H         4.32117275      11.16611825       1.57375173         0.00000000       0.00000000       0.00000000          1
H        11.58542879       0.73584277      14.25049079         0.00000000       0.00000000       0.00000000          1
H        14.41954668       4.36770606       4.71324723         0.00000000       0.00000000       0.00000000          1
H         2.62050691       3.93965296       5.87249919         0.00000000       0.00000000       0.00000000          1
H        11.74153335       6.35855876       4.20794044         0.00000000       0.00000000       0.00000000          1
6
pbc=[F, F, F] list_num_par=6 frozen=false iter=179 energy=-0.06765615 Lattice="15.00000000 0.00000000 0.00000000 0.00000000 15.00000000 0.00000000 0.00000000 0.00000000 15.00000000" energy_frozen_part=0.00000000 Properties=species:S:1:pos:R:3:velocities:R:3:Z:I:1
H         5.79621918       0.04420962       9.73382589         0.00000000       0.00000000       0.00000000          1
H        11.73281975       0.97975977      14.38381728         0.00000000       0.00000000       0.00000000          1
H         4.29500976       8.60728016      12.96730023         0.00000000       0.00000000       0.00000000          1
H         7.14518768       4.76710416      11.72667254         0.00000000       0.00000000       0.00000000          1
H         2.69573540       3.65738543       2.87300662         0.00000000       0.00000000       0.00000000          1
H         1.84439242       6.70021807      11.54044226         0.00000000       0.00000000       0.00000000          1
6
pbc=[F, F, F] list_num_par=6 frozen=false iter=189 energy=-0.07402891 Lattice="15.00000000 0.00000000 0.00000000 0.00000000 15.00000000 0.00000000 0.00000000 0.00000000 15.00000000" energy_frozen_part=0.00000000 Properties=species:S:1:pos:R:3:velocities:R:3:Z:I:1
H        11.77940452       7.51549288       2.68012222         0.00000000       0.00000000       0.00000000          1
H         6.35240251       0.90067886       1.29786662         0.00000000       0.00000000       0.00000000          1
H        10.05155659      11.53094850       8.28557693         0.00000000       0.00000000       0.00000000          1
H         1.84209415      14.67287384       9.91944991         0.00000000       0.00000000       0.00000000          1
H         9.88651825       8.79177225       5.26379834         0.00000000       0.00000000       0.00000000          1
H         8.42736771       1.72177613       6.54291238         0.00000000       0.00000000       0.00000000          1
6
pbc=[F, F, F] list_num_par=6 frozen=false iter=199 energy=-0.07971615 Lattice="15.00000000 0.00000000 0.00000000 0.00000000 15.00000000 0.00000000 0.00000000 0.00000000 15.00000000" energy_frozen_part=0.00000000 Properties=species:S:1:pos:R:3:velocities:R:3:Z:I:1
H        13.53372778       4.81792359       3.23733652         0.00000000       0.00000000       0.00000000          1
H         6.60939006       1.29252977       7.69223790         0.00000000       0.00000000       0.00000000          1
H         2.70655366      14.77989448      13.30575696         0.00000000       0.00000000       0.00000000          1
H         0.02016619       0.24021613       5.32453778         0.00000000       0.00000000       0.00000000          1
H        12.27662610      12.27943881       2.91386732         0.00000000       0.00000000       0.00000000          1
H         8.80627177       2.33871756       5.71374013         0.00000000       0.00000000       0.00000000          1
6
pbc=[F, F, F] list_num_par=6 frozen=false iter=209 energy=-0.08363753 Lattice="15.00000000 0.00000000 0.00000000 0.00000000 15.00000000 0.00000000 0.00000000 0.00000000 15.00000000" energy_frozen_part=0.00000000 Properties=species:S:1:pos:R:3:velocities:R:3:Z:I:1
H        10.23687303       7.73477438       4.08833643         0.00000000       0.00000000       0.00000000          1
H         9.17355952      12.79945681       9.34533212         0.00000000       0.00000000       0.00000000          1
H         3.23570588      10.03972708       0.12366172         0.00000000       0.00000000       0.00000000          1
H         1.44878737       6.32558936       8.45031997         0.00000000       0.00000000       0.00000000          1
H        10.28885191      12.76527885       6.41454222         0.00000000       0.00000000       0.00000000          1
H         8.40225664      13.72465637       0.42055591         0.00000000       0.00000000       0.00000000          1
6
pbc=[F, F, F] list_num_par=6 frozen=false iter=219 energy=-0.08712604 Lattice="15.00000000 0.00000000 0.00000000 0.00000000 15.00000000 0.00000000 0.00000000 0.00000000 15.00000000" energy_frozen_part=0.00000000 Properties=species:S:1:pos:R:3:velocities:R:3:Z:I:1
H        10.84835853      12.09669381       6.73664722         0.00000000       0.00000000       0.00000000          1
H         3.91051250       4.94733255       9.76690411         0.00000000       0.00000000       0.00000000          1
H        11.23096406       5.76847661       6.64938591         0.00000000       0.00000000       0.00000000          1
H         5.44718667       3.05650171       7.80474131         0.00000000       0.00000000       0.00000000          1
H         2.88023483      11.28461179      13.10906089         0.00000000       0.00000000       0.00000000          1
H        14.56482835      10.40736231       9.75389622         0.00000000       0.00000000       0.00000000          1
6
pbc=[F, F, F] list_num_par=6 frozen=false iter=229 energy=-0.09096544 Lattice="15.00000000 0.00000000 0.00000000 0.00000000 15.00000000 0.00000000 0.00000000 0.00000000 15.00000000" energy_frozen_part=0.00000000 Properties=species:S:1:pos:R:3:velocities:R:3:Z:I:1
H         3.12455258       0.94555521       6.79171386         0.00000000       0.00000000       0.00000000          1
H        11.43069697       1.01090401       9.28421417         0.00000000       0.00000000       0.00000000          1
H         2.36172004       7.24811217       6.81242724         0.00000000       0.00000000       0.00000000          1
H         1.71698930       7.40591562      10.37620754         0.00000000       0.00000000       0.00000000          1
H         8.17224081       0.73887274       0.34030197         0.00000000       0.00000000       0.00000000          1
H        11.26658638       4.02456082      10.92724307         0.00000000       0.00000000       0.00000000          1
6
pbc=[F, F, F] list_num_par=6 frozen=false iter=239 energy=-0.09432769 Lattice="15.00000000 0.00000000 0.00000000 0.00000000 15.00000000 0.00000000 0.00000000 0.00000000 15.00000000" energy_frozen_part=0.00000000 Properties=species:S:1:pos:R:3:velocities:R:3:Z:I:1
H         6.10717006      14.01320209      10.68367881         0.00000000       0.00000000       0.00000000          1
H        10.17415913       5.36431651      14.55814144         0.00000000       0.00000000       0.00000000          1
H        13.38015291       6.60836351       6.26146828         0.00000000       0.00000000       0.00000000          1
H         8.26040818       2.33147881      10.05637834         0.00000000       0.00000000       0.00000000          1
H         8.47128085       3.90440805       6.81355592         0.00000000       0.00000000       0.00000000          1
H         7.41698877       2.12077391      12.45205017         0.00000000       0.00000000       0.00000000          1
6
pbc=[F, F, F] list_num_par=6 frozen=false iter=249 energy=-0.09984322 Lattice="15.00000000 0.00000000 0.00000000 0.00000000 15.00000000 0.00000000 0.00000000 0.00000000 15.00000000" energy_frozen_part=0.00000000 Properties=species:S:1:pos:R:3:velocities:R:3:Z:I:1
H        10.91725413      11.19083079      11.84715201         0.00000000       0.00000000       0.00000000          1
H         3.34741440       1.21266424      10.23384964         0.00000000       0.00000000       0.00000000          1
H         3.01273501       5.56163533       5.18020076         0.00000000       0.00000000       0.00000000          1
H         3.27208672      12.72067622       6.84145320         0.00000000       0.00000000       0.00000000          1
H         1.37221191       6.66350854       2.98616949         0.00000000       0.00000000       0.00000000          1
H         5.23408182      10.75051388      12.16851692         0.00000000       0.00000000       0.00000000          1
6
pbc=[F, F, F] list_num_par=6 frozen=false iter=259 energy=-0.10186223 Lattice="15.00000000 0.00000000 0.00000000 0.00000000 15.00000000 0.00000000 0.00000000 0.00000000 15.00000000" energy_frozen_part=0.00000000 Properties=species:S:1:pos:R:3:velocities:R:3:Z:I:1
H        13.70385385       3.04472628      12.60292214         0.00000000       0.00000000       0.00000000          1
H        12.58770689      11.56740478       4.32159085         0.00000000       0.00000000       0.00000000          1
H         4.45575116       3.82974434      14.09840602         0.00000000       0.00000000       0.00000000          1
H        12.34169268       8.75763054      12.88415015         0.00000000       0.00000000       0.00000000          1
H        14.72212959      13.30142759       3.94720877         0.00000000       0.00000000       0.00000000          1
H         0.92714664      13.10917342      14.97404330         0.00000000       0.00000000       0.00000000          1
6
pbc=[F, F, F] list_num_par=6 frozen=false iter=269 energy=-0.10445787 Lattice="15.00000000 0.00000000 0.00000000 0.00000000 15.00000000 0.00000000 0.00000000 0.00000000 15.00000000" energy_frozen_part=0.00000000 Properties=species:S:1:pos:R:3:velocities:R:3:Z:I:1
H        10.32434010      10.04970279       7.32412248         0.00000000       0.00000000       0.00000000          1
H        14.65081727      10.27245118       9.34820015         0.00000000       0.00000000       0.00000000          1
H         5.91074144       2.50320540       9.99763080         0.00000000       0.00000000       0.00000000          1
H         8.11083631       7.93239985       8.59203825         0.00000000       0.00000000       0.00000000          1
H         8.06822913       7.70901814       2.42279692         0.00000000       0.00000000       0.00000000          1
H         6.77509763       5.71253684      12.39190711         0.00000000       0.00000000       0.00000000          1
6
pbc=[F, F, F] list_num_par=6 frozen=false iter=279 energy=-0.10752685 Lattice="15.00000000 0.00000000 0.00000000 0.00000000 15.00000000 0.00000000 0.00000000 0.00000000 15.00000000" energy_frozen_part=0.00000000 Properties=species:S:1:pos:R:3:velocities:R:3:Z:I:1
H        13.62585742       0.48577995      11.36370364         0.00000000       0.00000000       0.00000000          1
H         4.62107049       0.47418348       5.29452808         0.00000000       0.00000000       0.00000000          1
H         0.14848785       4.45359774       5.05237142         0.00000000       0.00000000       0.00000000          1
H         8.51396762       4.97396851       0.95902925         0.00000000       0.00000000       0.00000000          1
H         0.98325125       3.33094637       7.51888430         0.00000000       0.00000000       0.00000000          1
H        12.40997358       9.16397392       6.68487211         0.00000000       0.00000000       0.00000000          1
6
pbc=[F, F, F] list_num_par=6 frozen=false iter=289 energy=-0.11116644 Lattice="15.00000000 0.00000000 0.00000000 0.00000000 15.00000000 0.00000000 0.00000000 0.00000000 15.00000000" energy_frozen_part=0.00000000 Properties=species:S:1:pos:R:3:velocities:R:3:Z:I:1
H        13.36356911       5.18349014       7.40260480         0.00000000       0.00000000       0.00000000          1
H        13.04383484      10.17692503       3.28480758         0.00000000       0.00000000       0.00000000          1
H        14.28608374      12.09942435      14.17001471         0.00000000       0.00000000       0.00000000          1
H        11.05007504       5.19573665       5.85841293         0.00000000       0.00000000       0.00000000          1
H        11.55630981      13.52138594       6.50145700         0.00000000       0.00000000       0.00000000          1
H         6.27786013       7.23962486      11.42639207         0.00000000       0.00000000       0.00000000          1
6
pbc=[F, F, F] list_num_par=6 frozen=false iter=299 energy=-0.11301158 Lattice="15.00000000 0.00000000 0.00000000 0.00000000 15.00000000 0.00000000 0.00000000 0.00000000 15.00000000" energy_frozen_part=0.00000000 Properties=species:S:1:pos:R:3:velocities:R:3:Z:I:1
H         8.44943123       5.29548091       8.29734278         0.00000000       0.00000000       0.00000000          1
H        12.41484988       4.20186334       2.52328023         0.00000000       0.00000000       0.00000000          1
H         0.62960117       5.13580472       2.06267840         0.00000000       0.00000000       0.00000000          1
H         3.36065108       8.71153049       2.04850451         0.00000000       0.00000000       0.00000000          1
H         2.75889461       9.39890210       6.51757547         0.00000000       0.00000000       0.00000000          1
H        11.37758610       4.62979372       7.78807004         0.00000000       0.00000000       0.00000000          1
6
pbc=[F, F, F] list_num_par=6 frozen=false iter=309 energy=-0.11656792 Lattice="15.00000000 0.00000000 0.00000000 0.00000000 15.00000000 0.00000000 0.00000000 0.00000000 15.00000000" energy_frozen_part=0.00000000 Properties=species:S:1:pos:R:3:velocities:R:3:Z:I:1
H        11.54134028       5.29894680       6.85618342         0.00000000       0.00000000       0.00000000          1
H         2.97627127       4.36630827      12.37551509         0.00000000       0.00000000       0.00000000          1