6
pbc=[F, F, F] list_num_par=6 frozen=false iter=20000 energy=-1.26974174 Lattice="15.00000000 0.00000000 0.00000000 0.00000000 15.00000000 0.00000000 0.00000000 0.00000000 15.00000000" energy_frozen_part=0.00000000 Properties=species:S:1:pos:R:3:velocities:R:3:Z:I:1
H         8.26107409       3.04886532       8.04319570         0.00000000       0.00000000       0.00000000          1
H        10.48367903       4.55765185       8.80993748         0.00000000       0.00000000       0.00000000          1
H         8.37178081       1.65634749      10.46247884         0.00000000       0.00000000       0.00000000          1
H         8.23356824       4.44653585      10.46188523         0.00000000       0.00000000       0.00000000          1
H        10.62189938       1.76745758       8.81052423         0.00000000       0.00000000       0.00000000          1
H        10.59439268       3.16512402      11.22921359         0.00000000       0.00000000       0.00000000          1
6
pbc=[F, F, F] list_num_par=6 frozen=false iter=20000 energy=-1.26974174 Lattice="15.00000000 0.00000000 0.00000000 0.00000000 15.00000000 0.00000000 0.00000000 0.00000000 15.00000000" energy_frozen_part=0.00000000 Properties=species:S:1:pos:R:3:velocities:R:3:Z:I:1
H         8.26126180       3.04930958       8.04315142         0.00000000       0.00000000       0.00000000          1
H        10.48389006       4.55786712       8.81026447         0.00000000       0.00000000       0.00000000          1
H         8.37143748       1.65676027      10.46243277         0.00000000       0.00000000       0.00000000          1
H         8.23349910       4.44697100      10.46184342         0.00000000       0.00000000       0.00000000          1
H        10.62183432       1.76766157       8.81084881         0.00000000       0.00000000       0.00000000          1
H        10.59406879       3.16531300      11.22955042         0.00000000       0.00000000       0.00000000          1
6
pbc=[F, F, F] list_num_par=6 frozen=false iter=20000 energy=-1.26974174 Lattice="15.00000000 0.00000000 0.00000000 0.00000000 15.00000000 0.00000000 0.00000000 0.00000000 15.00000000" energy_frozen_part=0.00000000 Properties=species:S:1:pos:R:3:velocities:R:3:Z:I:1
H         8.26162699       3.04946930       8.04292773         0.00000000       0.00000000       0.00000000          1
H        10.48436736       4.55788083       8.81001184         0.00000000       0.00000000       0.00000000          1
H         8.37161169       1.65706587      10.46230920         0.00000000       0.00000000       0.00000000          1
H         8.23390870       4.44727955      10.46152707         0.00000000       0.00000000       0.00000000          1
H        10.62205768       1.76766129       8.81078569         0.00000000       0.00000000       0.00000000          1
H        10.59434607       3.16547445      11.22938470         0.00000000       0.00000000       0.00000000          1
6
pbc=[F, F, F] list_num_par=6 frozen=false iter=20000 energy=-1.26974174 Lattice="15.00000000 0.00000000 0.00000000 0.00000000 15.00000000 0.00000000 0.00000000 0.00000000 15.00000000" energy_frozen_part=0.00000000 Properties=species:S:1:pos:R:3:velocities:R:3:Z:I:1
H         8.26158277       3.04950668       8.04298131         0.00000000       0.00000000       0.00000000          1
H        10.48433848       4.55794466       8.80996993         0.00000000       0.00000000       0.00000000          1
H         8.37164674       1.65712404      10.46237454         0.00000000       0.00000000       0.00000000          1
H         8.23393575       4.44734588      10.46156216         0.00000000       0.00000000       0.00000000          1
H        10.62204311       1.76772577       8.81077983         0.00000000       0.00000000       0.00000000          1
H        10.59439868       3.16556387      11.22936223         0.00000000       0.00000000       0.00000000          1
6
pbc=[F, F, F] list_num_par=6 frozen=false iter=20000 energy=-1.26974174 Lattice="15.00000000 0.00000000 0.00000000 0.00000000 15.00000000 0.00000000 0.00000000 0.00000000 15.00000000" energy_frozen_part=0.00000000 Properties=species:S:1:pos:R:3:velocities:R:3:Z:I:1
H         8.26157340       3.04951266       8.04298804         0.00000000       0.00000000       0.00000000          1
H        10.48431013       4.55797324       8.80999309         0.00000000       0.00000000       0.00000000          1
H         8.37167018       1.65709677      10.46235248         0.00000000       0.00000000       0.00000000          1
H         8.23391642       4.44731844      10.46158868         0.00000000       0.00000000       0.00000000          1
H        10.62206838       1.76775523       8.81075443         0.00000000       0.00000000       0.00000000          1
H        10.59440127       3.16555898      11.22936446         0.00000000       0.00000000       0.00000000          1
6
pbc=[F, F, F] list_num_par=6 frozen=false iter=20000 energy=-1.26974174 Lattice="15.00000000 0.00000000 0.00000000 0.00000000 15.00000000 0.00000000 0.00000000 0.00000000 15.00000000" energy_frozen_part=0.00000000 Properties=species:S:1:pos:R:3:velocities:R:3:Z:I:1
H         8.26110497       3.04884494       8.04317299         0.00000000       0.00000000       0.00000000          1
H        10.48369309       4.55764327       8.80993556         0.00000000       0.00000000       0.00000000          1
H         8.37178635       1.65632367      10.46245532         0.00000000       0.00000000       0.00000000          1
H         8.23356025       4.44652032      10.46185171         0.00000000       0.00000000       0.00000000          1
H        10.62192064       1.76744333       8.81053580         0.00000000       0.00000000       0.00000000          1
H        10.59437318       3.16511413      11.22921845         0.00000000       0.00000000       0.00000000          1
6
pbc=[F, F, F] list_num_par=6 frozen=false iter=20000 energy=-1.26974174 Lattice="15.00000000 0.00000000 0.00000000 0.00000000 15.00000000 0.00000000 0.00000000 0.00000000 15.00000000" energy_frozen_part=0.00000000 Properties=species:S:1:pos:R:3:velocities:R:3:Z:I:1
H         8.26163463       3.04945754       8.04298375         0.00000000       0.00000000       0.00000000          1
H        10.48436300       4.55789362       8.81004652         0.00000000       0.00000000       0.00000000          1
H         8.37163318       1.65707994      10.46237835         0.00000000       0.00000000       0.00000000          1
H         8.23392501       4.44729926      10.46157363         0.00000000       0.00000000       0.00000000          1
H        10.62207370       1.76767149       8.81084650         0.00000000       0.00000000       0.00000000          1
H        10.59437271       3.16550766      11.22943370         0.00000000       0.00000000       0.00000000          1
6
pbc=[F, F, F] list_num_par=6 frozen=false iter=20000 energy=-1.26974174 Lattice="15.00000000 0.00000000 0.00000000 0.00000000 15.00000000 0.00000000 0.00000000 0.00000000 15.00000000" energy_frozen_part=0.00000000 Properties=species:S:1:pos:R:3:velocities:R:3:Z:I:1
H         8.22502933       3.06934746       8.03996005         0.00000000       0.00000000       0.00000000          1
H        10.48012569       4.53964459       8.78634055         0.00000000       0.00000000       0.00000000          1
H         8.33022215       1.67909662      10.46079588         0.00000000       0.00000000       0.00000000          1
H         8.24160391       4.47130189      10.45626103         0.00000000       0.00000000       0.00000000          1
H        10.56874336       1.74743849       8.79086630         0.00000000       0.00000000       0.00000000          1
H        10.58531360       3.14939651      11.20716740         0.00000000       0.00000000       0.00000000          1
6
pbc=[F, F, F] list_num_par=6 frozen=false iter=20000 energy=-1.26974174 Lattice="15.00000000 0.00000000 0.00000000 0.00000000 15.00000000 0.00000000 0.00000000 0.00000000 15.00000000" energy_frozen_part=0.00000000 Properties=species:S:1:pos:R:3:velocities:R:3:Z:I:1
H         8.26109077       3.04887005       8.04318253         0.00000000       0.00000000       0.00000000          1
H        10.48369152       4.55764562       8.80994571         0.00000000       0.00000000       0.00000000          1
H         8.37178641       1.65633418      10.46246008         0.00000000       0.00000000       0.00000000          1
H         8.23356742       4.44652147      10.46187703         0.00000000       0.00000000       0.00000000          1
H        10.62190179       1.76744924       8.81052915         0.00000000       0.00000000       0.00000000          1
H        10.59438744       3.16511387      11.22921756         0.00000000       0.00000000       0.00000000          1
6
pbc=[F, F, F] list_num_par=6 frozen=false iter=20000 energy=-1.26974174 Lattice="15.00000000 0.00000000 0.00000000 0.00000000 15.00000000 0.00000000 0.00000000 0.00000000 15.00000000" energy_frozen_part=0.00000000 Properties=species:S:1:pos:R:3:velocities:R:3:Z:I:1
H         8.26163982       3.04947051       8.04291412         0.00000000       0.00000000       0.00000000          1
H        10.48438284       4.55786829       8.81000818         0.00000000       0.00000000       0.00000000          1
H         8.37159481       1.65706718      10.46230200         0.00000000       0.00000000       0.00000000          1
H         8.23392155       4.44728269      10.46152070         0.00000000       0.00000000       0.00000000          1
H        10.62206067       1.76764828       8.81079754         0.00000000       0.00000000       0.00000000          1
H        10.59434504       3.16546723      11.22939522         0.00000000       0.00000000       0.00000000          1
6
pbc=[F, F, F] list_num_par=6 frozen=false iter=20000 energy=-1.26974174 Lattice="15.00000000 0.00000000 0.00000000 0.00000000 15.00000000 0.00000000 0.00000000 0.00000000 15.00000000" energy_frozen_part=0.00000000 Properties=species:S:1:pos:R:3:velocities:R:3:Z:I:1
H         8.26119950       3.04929469       8.04321252         0.00000000       0.00000000       0.00000000          1
H        10.48386002       4.55784311       8.81025188         0.00000000       0.00000000       0.00000000          1
H         8.37147899       1.65673087      10.46248443         0.00000000       0.00000000       0.00000000          1
H         8.23353480       4.44693407      10.46191725         0.00000000       0.00000000       0.00000000          1
H        10.62180771       1.76764064       8.81082023         0.00000000       0.00000000       0.00000000          1
H        10.59413429       3.16528288      11.22952577         0.00000000       0.00000000       0.00000000          1
6
pbc=[F, F, F] list_num_par=6 frozen=false iter=20000 energy=-1.26974174 Lattice="15.00000000 0.00000000 0.00000000 0.00000000 15.00000000 0.00000000 0.00000000 0.00000000 15.00000000" energy_frozen_part=0.00000000 Properties=species:S:1:pos:R:3:velocities:R:3:Z:I:1
H         8.26161468       3.04950570       8.04290189         0.00000000       0.00000000       0.00000000          1
H        10.48435688       4.55790523       8.80998993         0.00000000       0.00000000       0.00000000          1
H         8.37158966       1.65709057      10.46227978         0.00000000       0.00000000       0.00000000          1
H         8.23391025       4.44730802      10.46151328         0.00000000       0.00000000       0.00000000          1
H        10.62203669       1.76768332       8.81075402         0.00000000       0.00000000       0.00000000          1
H        10.59433562       3.16547832      11.22936204         0.00000000       0.00000000       0.00000000          1
6
pbc=[F, F, F] list_num_par=6 frozen=false iter=20000 energy=-1.26974174 Lattice="15.00000000 0.00000000 0.00000000 0.00000000 15.00000000 0.00000000 0.00000000 0.00000000 15.00000000" energy_frozen_part=0.00000000 Properties=species:S:1:pos:R:3:velocities:R:3:Z:I:1
H         8.22503606       3.06935953       8.03995612         0.00000000       0.00000000       0.00000000          1
H        10.48013812       4.53964005       8.78634102         0.00000000       0.00000000       0.00000000          1
H         8.33022248       1.67910284      10.46078590         0.00000000       0.00000000       0.00000000          1
H         8.24161415       4.47130835      10.45625944         0.00000000       0.00000000       0.00000000          1
H        10.56873364       1.74743848       8.79085980         0.00000000       0.00000000       0.00000000          1
H        10.58531718       3.14939059      11.20716870         0.00000000       0.00000000       0.00000000          1
6
pbc=[F, F, F] list_num_par=6 frozen=false iter=20000 energy=-1.26974174 Lattice="15.00000000 0.00000000 0.00000000 0.00000000 15.00000000 0.00000000 0.00000000 0.00000000 15.00000000" energy_frozen_part=0.00000000 Properties=species:S:1:pos:R:3:velocities:R:3:Z:I:1
H         8.26105972       3.04881986       8.04322134         0.00000000       0.00000000       0.00000000          1
H        10.48365154       4.55762745       8.80996583         0.00000000       0.00000000       0.00000000          1
H         8.37177773       1.65630852      10.46250849         0.00000000       0.00000000       0.00000000          1
H         8.23354062       4.44649955      10.46190287         0.00000000       0.00000000       0.00000000          1
H        10.62189286       1.76743358       8.81056359         0.00000000       0.00000000       0.00000000          1
H        10.59437027       3.16511337      11.22924176         0.00000000       0.00000000       0.00000000          1
6
pbc=[F, F, F] list_num_par=6 frozen=false iter=20000 energy=-1.26974174 Lattice="15.00000000 0.00000000 0.00000000 0.00000000 15.00000000 0.00000000 0.00000000 0.00000000 15.00000000" energy_frozen_part=0.00000000 Properties=species:S:1:pos:R:3:velocities:R:3:Z:I:1
H         8.26167902       3.04949147       8.04290534         0.00000000       0.00000000       0.00000000          1
H        10.48437781       4.55789580       8.81010135         0.00000000       0.00000000       0.00000000          1
H         8.37158009       1.65703021      10.46225873         0.00000000       0.00000000       0.00000000          1
H         8.23387803       4.44724361      10.46154721         0.00000000       0.00000000       0.00000000          1
H        10.62209101       1.76767786       8.81081736         0.00000000       0.00000000       0.00000000          1
H        10.59429012       3.16542554      11.22945351         0.00000000       0.00000000       0.00000000          1
6
pbc=[F, F, F] list_num_par=6 frozen=false iter=20000 energy=-1.26974174 Lattice="15.00000000 0.00000000 0.00000000 0.00000000 15.00000000 0.00000000 0.00000000 0.00000000 15.00000000" energy_frozen_part=0.00000000 Properties=species:S:1:pos:R:3:velocities:R:3:Z:I:1
H         8.26127884       3.04933024       8.04321417         0.00000000       0.00000000       0.00000000          1
H        10.48389132       4.55791207       8.81032867         0.00000000       0.00000000       0.00000000          1
H         8.37151067       1.65673444      10.46247059         0.00000000       0.00000000       0.00000000          1
H         8.23351702       4.44694072      10.46193302         0.00000000       0.00000000       0.00000000          1
H        10.62188403       1.76770709       8.81085679         0.00000000       0.00000000       0.00000000          1
H        10.59412422       3.16531617      11.22957741         0.00000000       0.00000000       0.00000000          1
6
pbc=[F, F, F] list_num_par=6 frozen=false iter=20000 energy=-1.26974174 Lattice="15.00000000 0.00000000 0.00000000 0.00000000 15.00000000 0.00000000 0.00000000 0.00000000 15.00000000" energy_frozen_part=0.00000000 Properties=species:S:1:pos:R:3:velocities:R:3:Z:I:1
H         8.26110594       3.04885076       8.04317574         0.00000000       0.00000000       0.00000000          1
H        10.48370268       4.55762754       8.80993736         0.00000000       0.00000000       0.00000000          1
H         8.37177470       1.65632616      10.46244988         0.00000000       0.00000000       0.00000000          1
H         8.23356241       4.44651947      10.46185668         0.00000000       0.00000000       0.00000000          1
H        10.62191558       1.76743427       8.81053583         0.00000000       0.00000000       0.00000000          1
H        10.59436518       3.16510708      11.22922317         0.00000000       0.00000000       0.00000000          1
6
pbc=[F, F, F] list_num_par=6 frozen=false iter=20000 energy=-1.26974174 Lattice="15.00000000 0.00000000 0.00000000 0.00000000 15.00000000 0.00000000 0.00000000 0.00000000 15.00000000" energy_frozen_part=0.00000000 Properties=species:S:1:pos:R:3:velocities:R:3:Z:I:1
H         8.26162041       3.04947755       8.04293758         0.00000000       0.00000000       0.00000000          1
H        10.48435291       4.55790081       8.81002544         0.00000000       0.00000000       0.00000000          1
H         8.37161518       1.65704782      10.46230264         0.00000000       0.00000000       0.00000000          1
H         8.23390573       4.44726758      10.46155306         0.00000000       0.00000000       0.00000000          1
H        10.62206414       1.76768292       8.81077534         0.00000000       0.00000000       0.00000000          1
H        10.59434171       3.16546250      11.22939104         0.00000000       0.00000000       0.00000000          1
6
pbc=[F, F, F] list_num_par=6 frozen=false iter=20000 energy=-1.26974174 Lattice="15.00000000 0.00000000 0.00000000 0.00000000 15.00000000 0.00000000 0.00000000 0.00000000 15.00000000" energy_frozen_part=0.00000000 Properties=species:S:1:pos:R:3:velocities:R:3:Z:I:1
H         8.26121878       3.04933304       8.04320274         0.00000000       0.00000000       0.00000000          1
H        10.48386723       4.55787676       8.81028469         0.00000000       0.00000000       0.00000000          1
H         8.37147444       1.65672857      10.46246504         0.00000000       0.00000000       0.00000000          1
H         8.23351896       4.44693721      10.46192755         0.00000000       0.00000000       0.00000000          1
H        10.62181384       1.76767357       8.81081538         0.00000000       0.00000000       0.00000000          1
H        10.59411541       3.16528016      11.22953794         0.00000000       0.00000000       0.00000000          1
6
pbc=[F, F, F] list_num_par=6 frozen=false iter=20000 energy=-1.26974174 Lattice="15.00000000 0.00000000 0.00000000 0.00000000 15.00000000 0.00000000 0.00000000 0.00000000 15.00000000" energy_frozen_part=0.00000000 Properties=species:S:1:pos:R:3:velocities:R:3:Z:I:1
H         8.26108341       3.04887564       8.04318801         0.00000000       0.00000000       0.00000000          1
H        10.48369282       4.55764557       8.80993515         0.00000000       0.00000000       0.00000000          1
H         8.37177653       1.65633796      10.46245745         0.00000000       0.00000000       0.00000000          1
H         8.23357094       4.44652927      10.46188327         0.00000000       0.00000000       0.00000000          1
H        10.62189245       1.76744982       8.81051497         0.00000000       0.00000000       0.00000000          1
H        10.59438152       3.16511053      11.22921013         0.00000000       0.00000000       0.00000000          1
6
pbc=[F, F, F] list_num_par=6 frozen=false iter=20000 energy=-1.26974174 Lattice="15.00000000 0.00000000 0.00000000 0.00000000 15.00000000 0.00000000 0.00000000 0.00000000 15.00000000" energy_frozen_part=0.00000000 Properties=species:S:1:pos:R:3:velocities:R:3:Z:I:1
H         8.26165352       3.04951181       8.04289565         0.00000000       0.00000000       0.00000000          1
H        10.48438893       4.55787556       8.81007005         0.00000000       0.00000000       0.00000000          1
H         8.37155731       1.65704604      10.46224730         0.00000000       0.00000000       0.00000000          1
H         8.23388922       4.44726537      10.46152508         0.00000000       0.00000000       0.00000000          1
H        10.62205369       1.76766212       8.81079210         0.00000000       0.00000000       0.00000000          1
H        10.59429061       3.16542458      11.22942560         0.00000000       0.00000000       0.00000000          1
6
pbc=[F, F, F] list_num_par=6 frozen=false iter=20000 energy=-1.26974174 Lattice="15.00000000 0.00000000 0.00000000 0.00000000 15.00000000 0.00000000 0.00000000 0.00000000 15.00000000" energy_frozen_part=0.00000000 Properties=species:S:1:pos:R:3:velocities:R:3:Z:I:1
H         8.26158438       3.04951335       8.04297363         0.00000000       0.00000000       0.00000000          1
H        10.48433670       4.55795101       8.80998619         0.00000000       0.00000000       0.00000000          1
H         8.37164841       1.65711673      10.46234922         0.00000000       0.00000000       0.00000000          1
H         8.23392458       4.44733705      10.46156408         0.00000000       0.00000000       0.00000000          1
H        10.62205285       1.76772912       8.81076692         0.00000000       0.00000000       0.00000000          1
H        10.59439299       3.16555204      11.22936686         0.00000000       0.00000000       0.00000000          1
6
pbc=[F, F, F] list_num_par=6 frozen=false iter=20000 energy=-1.26974174 Lattice="15.00000000 0.00000000 0.00000000 0.00000000 15.00000000 0.00000000 0.00000000 0.00000000 15.00000000" energy_frozen_part=0.00000000 Properties=species:S:1:pos:R:3:velocities:R:3:Z:I:1
H         8.26106691       3.04884513       8.04323701         0.00000000       0.00000000       0.00000000          1
H        10.48365937       4.55763973       8.80998745         0.00000000       0.00000000       0.00000000          1
H         8.37177237       1.65631699      10.46251387         0.00000000       0.00000000       0.00000000          1
H         8.23354682       4.44651318      10.46192580         0.00000000       0.00000000       0.00000000          1
H        10.62189487       1.76744507       8.81056701         0.00000000       0.00000000       0.00000000          1
H        10.59436732       3.16510213      11.22925800         0.00000000       0.00000000       0.00000000          1
6
pbc=[F, F, F] list_num_par=6 frozen=false iter=20000 energy=-1.26974174 Lattice="15.00000000 0.00000000 0.00000000 0.00000000 15.00000000 0.00000000 0.00000000 0.00000000 15.00000000" energy_frozen_part=0.00000000 Properties=species:S:1:pos:R:3:velocities:R:3:Z:I:1
H         8.26162914       3.04945956       8.04291637         0.00000000       0.00000000       0.00000000          1
H        10.48436630       4.55787634       8.80999634         0.00000000       0.00000000       0.00000000          1
H         8.37160274       1.65706592      10.46230378         0.00000000       0.00000000       0.00000000          1
H         8.23391311       4.44728006      10.46151471         0.00000000       0.00000000       0.00000000          1
H        10.62206362       1.76765387       8.81078517         0.00000000       0.00000000       0.00000000          1
H        10.59434533       3.16548229      11.22938181         0.00000000       0.00000000       0.00000000          1
6
pbc=[F, F, F] list_num_par=6 frozen=false iter=20000 energy=-1.26974174 Lattice="15.00000000 0.00000000 0.00000000 0.00000000 15.00000000 0.00000000 0.00000000 0.00000000 15.00000000" energy_frozen_part=0.00000000 Properties=species:S:1:pos:R:3:velocities:R:3:Z:I:1
H         8.26130474       3.04932559       8.04316223         0.00000000       0.00000000       0.00000000          1
H        10.48393083       4.55787732       8.81029631         0.00000000       0.00000000       0.00000000          1
H         8.37148801       1.65674599      10.46242808         0.00000000       0.00000000       0.00000000          1
H         8.23353467       4.44695431      10.46187117         0.00000000       0.00000000       0.00000000          1
H        10.62187467       1.76766591       8.81084923         0.00000000       0.00000000       0.00000000          1
H        10.59410683       3.16529539      11.22956333         0.00000000       0.00000000       0.00000000          1
6
pbc=[F, F, F] list_num_par=6 frozen=false iter=20000 energy=-1.26974174 Lattice="15.00000000 0.00000000 0.00000000 0.00000000 15.00000000 0.00000000 0.00000000 0.00000000 15.00000000" energy_frozen_part=0.00000000 Properties=species:S:1:pos:R:3:velocities:R:3:Z:I:1
H         8.26125317       3.04931943       8.04315941         0.00000000       0.00000000       0.00000000          1
H        10.48389108       4.55786230       8.81026045         0.00000000       0.00000000       0.00000000          1
H         8.37143531       1.65675948      10.46243572         0.00000000       0.00000000       0.00000000          1
H         8.23350046       4.44697012      10.46185202         0.00000000       0.00000000       0.00000000          1
H        10.62182524       1.76765416       8.81085365         0.00000000       0.00000000       0.00000000          1
H        10.59406617       3.16530581      11.22954649         0.00000000       0.00000000       0.00000000          1
6
pbc=[F, F, F] list_num_par=6 frozen=false iter=20000 energy=-1.26974174 Lattice="15.00000000 0.00000000 0.00000000 0.00000000 15.00000000 0.00000000 0.00000000 0.00000000 15.00000000" energy_frozen_part=0.00000000 Properties=species:S:1:pos:R:3:velocities:R:3:Z:I:1
H         8.22502187       3.06934268       8.03995887         0.00000000       0.00000000       0.00000000          1
H        10.48011609       4.53963996       8.78632709         0.00000000       0.00000000       0.00000000          1
H         8.33022236       1.67910077      10.46079103         0.00000000       0.00000000       0.00000000          1
H         8.24160837       4.47130431      10.45626868         0.00000000       0.00000000       0.00000000          1
H        10.56873513       1.74743237       8.79086327         0.00000000       0.00000000       0.00000000          1
H        10.58531496       3.14939296      11.20716478         0.00000000       0.00000000       0.00000000          1
6
pbc=[F, F, F] list_num_par=6 frozen=false iter=20000 energy=-1.26974174 Lattice="15.00000000 0.00000000 0.00000000 0.00000000 15.00000000 0.00000000 0.00000000 0.00000000 15.00000000" energy_frozen_part=0.00000000 Properties=species:S:1:pos:R:3:velocities:R:3:Z:I:1
H         8.26120989       3.04935164       8.04320388         0.00000000       0.00000000       0.00000000          1
H        10.48384929       4.55789751       8.81029330         0.00000000       0.00000000       0.00000000          1
H         8.37146721       1.65672074      10.46244442         0.00000000       0.00000000       0.00000000          1
H         8.23351396       4.44692302      10.46194556         0.00000000       0.00000000       0.00000000          1
H        10.62181029       1.76768928       8.81080311         0.00000000       0.00000000       0.00000000          1
H        10.59411587       3.16527273      11.22953655         0.00000000       0.00000000       0.00000000          1
6
pbc=[F, F, F] list_num_par=6 frozen=false iter=20000 energy=-1.26974174 Lattice="15.00000000 0.00000000 0.00000000 0.00000000 15.00000000 0.00000000 0.00000000 0.00000000 15.00000000" energy_frozen_part=0.00000000 Properties=species:S:1:pos:R:3:velocities:R:3:Z:I:1
H         8.26112704       3.04882978       8.04323843         0.00000000       0.00000000       0.00000000          1
H        10.48376816       4.55753892       8.81001677         0.00000000       0.00000000       0.00000000          1
H         8.37173551       1.65631116      10.46252139         0.00000000       0.00000000       0.00000000          1
H         8.23361046       4.44651463      10.46191884         0.00000000       0.00000000       0.00000000          1
H        10.62188841       1.76734291       8.81062476         0.00000000       0.00000000       0.00000000          1
H        10.59437070       3.16502157      11.22929958         0.00000000       0.00000000       0.00000000          1
6
pbc=[F, F, F] list_num_par=6 frozen=false iter=20000 energy=-1.26974174 Lattice="15.00000000 0.00000000 0.00000000 0.00000000 15.00000000 0.00000000 0.00000000 0.00000000 15.00000000" energy_frozen_part=0.00000000 Properties=species:S:1:pos:R:3:velocities:R:3:Z:I:1
H         8.26161546       3.04947631       8.04294962         0.00000000       0.00000000       0.00000000          1
H        10.48433918       4.55792012       8.81002431         0.00000000       0.00000000       0.00000000          1
H         8.37162398       1.65705805      10.46232084         0.00000000       0.00000000       0.00000000          1
H         8.23389723       4.44727527      10.46155409         0.00000000       0.00000000       0.00000000          1
H        10.62206857       1.76769762       8.81078627         0.00000000       0.00000000       0.00000000          1
H        10.59435138       3.16549202      11.22939618         0.00000000       0.00000000       0.00000000          1
6
pbc=[F, F, F] list_num_par=6 frozen=false iter=20000 energy=-1.26974174 Lattice="15.00000000 0.00000000 0.00000000 0.00000000 15.00000000 0.00000000 0.00000000 0.00000000 15.00000000" energy_frozen_part=0.00000000 Properties=species:S:1:pos:R:3:velocities:R:3:Z:I:1
H         8.26130407       3.04932182       8.04316573         0.00000000       0.00000000       0.00000000          1
H        10.48392336       4.55788548       8.81029671         0.00000000       0.00000000       0.00000000          1