6
pbc=[F, F, F] list_num_par=6 frozen=false iter=9 energy=28.95706146 Lattice="15.00000000 0.00000000 0.00000000 0.00000000 15.00000000 0.00000000 0.00000000 0.00000000 15.00000000" energy_frozen_part=0.00000000 Properties=species:S:1:pos:R:3:velocities:R:3:Z:I:1
H         2.10147301       5.65098927       1.87193079         0.00000000       0.00000000       0.00000000          1
H         3.73124542      14.49717395      12.26823256         0.00000000       0.00000000       0.00000000          1
H        14.72356355       2.84104996      12.67551281         0.00000000       0.00000000       0.00000000          1
H        14.12192500       5.28898066       4.10490525         0.00000000       0.00000000       0.00000000          1
H        13.94922658       6.43521964       5.39269965         0.00000000       0.00000000       0.00000000          1
H         8.39117838       1.41444405      13.93104848         0.00000000       0.00000000       0.00000000          1
6
pbc=[F, F, F] list_num_par=6 frozen=false iter=19 energy=0.66137181 Lattice="15.00000000 0.00000000 0.00000000 0.00000000 15.00000000 0.00000000 0.00000000 0.00000000 15.00000000" energy_frozen_part=0.00000000 Properties=species:S:1:pos:R:3:velocities:R:3:Z:I:1
H         8.79243472      11.09523018       0.07728685         0.00000000       0.00000000       0.00000000          1
H         3.89764971       2.54840090      11.11190803         0.00000000       0.00000000       0.00000000          1
H        13.90347642       9.24887797       2.20457203         0.00000000       0.00000000       0.00000000          1
H        11.45271747      10.27344305      12.04462930         0.00000000       0.00000000       0.00000000          1
H         9.94659666       3.21130539       4.70784368         0.00000000       0.00000000       0.00000000          1
H         7.96967038       2.14705774       4.85197225         0.00000000       0.00000000       0.00000000          1
6
pbc=[F, F, F] list_num_par=6 frozen=false iter=29 energy=-0.00125069 Lattice="15.00000000 0.00000000 0.00000000 0.00000000 15.00000000 0.00000000 0.00000000 0.00000000 15.00000000" energy_frozen_part=0.00000000 Properties=species:S:1:pos:R:3:velocities:R:3:Z:I:1
H         1.67665890       5.37999270       8.55046071         0.00000000       0.00000000       0.00000000          1
H         4.41271527      11.53481739      13.46989598         0.00000000       0.00000000       0.00000000          1
H        13.36544269       9.97057739       3.30598332         0.00000000       0.00000000       0.00000000          1
H         4.64605275       0.23431048       5.35487478         0.00000000       0.00000000       0.00000000          1
H        12.44447989       4.13687153      10.29743592         0.00000000       0.00000000       0.00000000          1
H         5.37429987      14.70770155       3.48336454         0.00000000       0.00000000       0.00000000          1
6
pbc=[F, F, F] list_num_par=6 frozen=false iter=39 energy=-0.00589210 Lattice="15.00000000 0.00000000 0.00000000 0.00000000 15.00000000 0.00000000 0.00000000 0.00000000 15.00000000" energy_frozen_part=0.00000000 Properties=species:S:1:pos:R:3:velocities:R:3:Z:I:1
H         8.95786747      10.91016199      12.69510459         0.00000000       0.00000000       0.00000000          1
H         0.58342967       5.91119944       1.19119524         0.00000000       0.00000000       0.00000000          1
H         1.69017632       5.44623482       7.37667560         0.00000000       0.00000000       0.00000000          1
H         6.16657732      14.56275620       2.79213009         0.00000000       0.00000000       0.00000000          1
H         6.89246226       5.06296259      12.53286458         0.00000000       0.00000000       0.00000000          1
H        13.05018962       6.61800418      10.33137581         0.00000000       0.00000000       0.00000000          1
6
pbc=[F, F, F] list_num_par=6 frozen=false iter=49 energy=-0.00965827 Lattice="15.00000000 0.00000000 0.00000000 0.00000000 15.00000000 0.00000000 0.00000000 0.00000000 15.00000000" energy_frozen_part=0.00000000 Properties=species:S:1:pos:R:3:velocities:R:3:Z:I:1
H         1.88501922      11.32260434       9.87922810         0.00000000       0.00000000       0.00000000          1
H         0.40762076       5.31306567      13.06311589         0.00000000       0.00000000       0.00000000          1
H         9.87762651       0.63474131      11.44060626         0.00000000       0.00000000       0.00000000          1
H         1.56210944      14.83548881       5.22500512         0.00000000       0.00000000       0.00000000          1
H        12.81799599       0.72609904       7.15687201         0.00000000       0.00000000       0.00000000          1
H         0.16017656       8.42303275       3.80802458         0.00000000       0.00000000       0.00000000          1
6
pbc=[F, F, F] list_num_par=6 frozen=false iter=59 energy=-0.01332515 Lattice="15.00000000 0.00000000 0.00000000 0.00000000 15.00000000 0.00000000 0.00000000 0.00000000 15.00000000" energy_frozen_part=0.00000000 Properties=species:S:1:pos:R:3:velocities:R:3:Z:I:1
H         8.36670998       9.40231734       7.85513974         0.00000000       0.00000000       0.00000000          1
H        12.60296615      13.35662963       4.41064466         0.00000000       0.00000000       0.00000000          1
H        13.22415067      11.74550215      13.67153967         0.00000000       0.00000000       0.00000000          1
H        11.16912917       6.50234232      10.48086981         0.00000000       0.00000000       0.00000000          1
H         0.36067250       8.93749470       3.16275311         0.00000000       0.00000000       0.00000000          1
H         7.15612650       2.59136241       8.85658561         0.00000000       0.00000000       0.00000000          1
6
pbc=[F, F, F] list_num_par=6 frozen=false iter=69 energy=-0.01860499 Lattice="15.00000000 0.00000000 0.00000000 0.00000000 15.00000000 0.00000000 0.00000000 0.00000000 15.00000000" energy_frozen_part=0.00000000 Properties=species:S:1:pos:R:3:velocities:R:3:Z:I:1
H         6.56177697       3.05083043      12.30562406         0.00000000       0.00000000       0.00000000          1
H        11.82795281      11.24020777       4.99656660         0.00000000       0.00000000       0.00000000          1
H         1.20991134      14.56440967       4.03999389         0.00000000       0.00000000       0.00000000          1
H         6.80068350       7.69540722       7.17785283         0.00000000       0.00000000       0.00000000          1
H         3.31445915      11.31734886       6.66628764         0.00000000       0.00000000       0.00000000          1
H         9.16905528       4.62927052       2.15407356         0.00000000       0.00000000       0.00000000          1
6
pbc=[F, F, F] list_num_par=6 frozen=false iter=79 energy=-0.02111729 Lattice="15.00000000 0.00000000 0.00000000 0.00000000 15.00000000 0.00000000 0.00000000 0.00000000 15.00000000" energy_frozen_part=0.00000000 Properties=species:S:1:pos:R:3:velocities:R:3:Z:I:1
H         9.32587091       3.82440882      14.18375945         0.00000000       0.00000000       0.00000000          1
H         8.17362968       5.39083896      10.56508890         0.00000000       0.00000000       0.00000000          1
H         0.56744574       9.76394190      13.97098031         0.00000000       0.00000000       0.00000000          1
H         3.54226089      11.11258188       4.39133774         0.00000000       0.00000000       0.00000000          1
H        11.65815935      11.80287053       0.92858372         0.00000000       0.00000000       0.00000000          1
H         1.85648875       5.15778642       5.13128220         0.00000000       0.00000000       0.00000000          1
6
pbc=[F, F, F] list_num_par=6 frozen=false iter=89 energy=-0.02733085 Lattice="15.00000000 0.00000000 0.00000000 0.00000000 15.00000000 0.00000000 0.00000000 0.00000000 15.00000000" energy_frozen_part=0.00000000 Properties=species:S:1:pos:R:3:velocities:R:3:Z:I:1
H         2.94881227       3.62700586       2.25014135         0.00000000       0.00000000       0.00000000          1
H         2.19279991      11.25460336       4.20806363         0.00000000       0.00000000       0.00000000          1
H        11.91418248       9.18125937       4.16838674         0.00000000       0.00000000       0.00000000          1
H        10.12658899       7.99190932       0.90658131         0.00000000       0.00000000       0.00000000          1
H        13.68468594       4.86093634      11.95884380         0.00000000       0.00000000       0.00000000          1
H        12.31403940       1.78273504       4.38844932         0.00000000       0.00000000       0.00000000          1
6
pbc=[F, F, F] list_num_par=6 frozen=false iter=99 energy=-0.03060418 Lattice="15.00000000 0.00000000 0.00000000 0.00000000 15.00000000 0.00000000 0.00000000 0.00000000 15.00000000" energy_frozen_part=0.00000000 Properties=species:S:1:pos:R:3:velocities:R:3:Z:I:1
H         9.85764241       0.78210889      14.63421723         0.00000000       0.00000000       0.00000000          1
H         1.84017903       8.15018653       8.19290481         0.00000000       0.00000000       0.00000000          1
H        10.29059510      14.28573591       1.54876096         0.00000000       0.00000000       0.00000000          1
H        13.47786470       9.55023613       3.70774633         0.00000000       0.00000000       0.00000000          1
H        13.01757011       2.43474593       1.65589898         0.00000000       0.00000000       0.00000000          1
H         7.65342115      11.47465838       1.86469287         0.00000000       0.00000000       0.00000000          1
6
pbc=[F, F, F] list_num_par=6 frozen=false iter=109 energy=-0.03525147 Lattice="15.00000000 0.00000000 0.00000000 0.00000000 15.00000000 0.00000000 0.00000000 0.00000000 15.00000000" energy_frozen_part=0.00000000 Properties=species:S:1:pos:R:3:velocities:R:3:Z:I:1
H         5.20878910       2.83574232       1.68269254         0.00000000       0.00000000       0.00000000          1
H        10.24149162       7.16476870       8.18541706         0.00000000       0.00000000       0.00000000          1
H         2.84859693       7.36119829       4.57224754         0.00000000       0.00000000       0.00000000          1
H         3.15179966      12.64294373       3.04252165         0.00000000       0.00000000       0.00000000          1
H         5.15954512      14.53170577       5.80173809         0.00000000       0.00000000       0.00000000          1
H        12.25219362      12.01394058      10.15610062         0.00000000       0.00000000       0.00000000          1
6
pbc=[F, F, F] list_num_par=6 frozen=false iter=119 energy=-0.04063307 Lattice="15.00000000 0.00000000 0.00000000 0.00000000 15.00000000 0.00000000 0.00000000 0.00000000 15.00000000" energy_frozen_part=0.00000000 Properties=species:S:1:pos:R:3:velocities:R:3:Z:I:1
H        10.88296577       3.13729220       3.04201149         0.00000000       0.00000000       0.00000000          1
H         6.28818316       5.34004595       5.26949070         0.00000000       0.00000000       0.00000000          1
H        13.06346215       6.18929627       0.71467942         0.00000000       0.00000000       0.00000000          1
H        13.76437218      13.16291227       2.19593435         0.00000000       0.00000000       0.00000000          1
H        13.80649244      13.00062220       6.14674197         0.00000000       0.00000000       0.00000000          1
H        12.74344849       0.97096076      12.43082495         0.00000000       0.00000000       0.00000000          1
6
pbc=[F, F, F] list_num_par=6 frozen=false iter=129 energy=-0.04407457 Lattice="15.00000000 0.00000000 0.00000000 0.00000000 15.00000000 0.00000000 0.00000000 0.00000000 15.00000000" energy_frozen_part=0.00000000 Properties=species:S:1:pos:R:3:velocities:R:3:Z:I:1
H        10.86895606       8.10987523      12.64867619         0.00000000       0.00000000       0.00000000          1
H         2.90178829      10.77985182       4.83895286         0.00000000       0.00000000       0.00000000          1
H        13.10007501       0.38719269       3.34751638         0.00000000       0.00000000       0.00000000          1
H         4.70411422       6.26754703       8.43599257         0.00000000       0.00000000       0.00000000          1
H         5.50244252      13.95828610       1.59042712         0.00000000       0.00000000       0.00000000          1
H         5.45163763       3.13020597      10.14825784         0.00000000       0.00000000       0.00000000          1
6
pbc=[F, F, F] list_num_par=6 frozen=false iter=139 energy=-0.04926462 Lattice="15.00000000 0.00000000 0.00000000 0.00000000 15.00000000 0.00000000 0.00000000 0.00000000 15.00000000" energy_frozen_part=0.00000000 Properties=species:S:1:pos:R:3:velocities:R:3:Z:I:1
H        10.44553001       4.00606555       4.98820030         0.00000000       0.00000000       0.00000000          1
H         2.72400975       0.26959193      11.95303671         0.00000000       0.00000000       0.00000000          1
H         1.70044457       4.81416364       9.92963362         0.00000000       0.00000000       0.00000000          1
H         2.12932530      10.99674109       8.91632432         0.00000000       0.00000000       0.00000000          1
H        14.87353526      10.16862762       7.41494681         0.00000000       0.00000000       0.00000000          1
H         4.72562838      12.64568561      10.71921733         0.00000000       0.00000000       0.00000000          1
6
pbc=[F, F, F] list_num_par=6 frozen=false iter=149 energy=-0.05477937 Lattice="15.00000000 0.00000000 0.00000000 0.00000000 15.00000000 0.00000000 0.00000000 0.00000000 15.00000000" energy_frozen_part=0.00000000 Properties=species:S:1:pos:R:3:velocities:R:3:Z:I:1
H         9.87353413      14.37968595      10.07246195         0.00000000       0.00000000       0.00000000          1
H         4.61649772      11.43144948      14.10115377         0.00000000       0.00000000       0.00000000          1
H        12.27042635       5.58658396       5.09674381         0.00000000       0.00000000       0.00000000          1
H         9.27360314       3.33005104      12.80769521         0.00000000       0.00000000       0.00000000          1
H        11.91572725      14.26891240       4.77082385         0.00000000       0.00000000       0.00000000          1
H        10.51471099       3.43053705       9.54634211         0.00000000       0.00000000       0.00000000          1
6
pbc=[F, F, F] list_num_par=6 frozen=false iter=159 energy=-0.06518561 Lattice="15.00000000 0.00000000 0.00000000 0.00000000 15.00000000 0.00000000 0.00000000 0.00000000 15.00000000" energy_frozen_part=0.00000000 Properties=species:S:1:pos:R:3:velocities:R:3:Z:I:1
H        10.63293094       0.25452177       2.05572473         0.00000000       0.00000000       0.00000000          1
H         4.91487137       4.17792466       6.55322358         0.00000000       0.00000000       0.00000000          1
H         9.30620393       6.10271446       1.02387947         0.00000000       0.00000000       0.00000000          1
H        13.06836572       9.86177309       1.42281321         0.00000000       0.00000000       0.00000000          1
H        11.45179363      12.55798831       2.55483452         0.00000000       0.00000000       0.00000000          1
H        14.67760041       2.67077520      12.29192655         0.00000000       0.00000000       0.00000000          1
6
pbc=[F, F, F] list_num_par=6 frozen=false iter=169 energy=-0.07191327 Lattice="15.00000000 0.00000000 0.00000000 0.00000000 15.00000000 0.00000000 0.00000000 0.00000000 15.00000000" energy_frozen_part=0.00000000 Properties=species:S:1:pos:R:3:velocities:R:3:Z:I:1
H         1.73465360       9.22745347       3.69104610         0.00000000       0.00000000       0.00000000          1
H         2.55574893      13.76783765       8.16958695         0.00000000       0.00000000       0.00000000          1
H         4.67481636      11.08035751      10.47867234         0.00000000       0.00000000       0.00000000          1
H         8.78059434       3.16064601       0.26661303         0.00000000       0.00000000       0.00000000          1
H         3.08759926       6.53653525       1.99083229         0.00000000       0.00000000       0.00000000          1
H         9.33292905       8.11946527       5.82435490         0.00000000       0.00000000       0.00000000          1
6
pbc=[F, F, F] list_num_par=6 frozen=false iter=179 energy=-0.07487358 Lattice="15.00000000 0.00000000 0.00000000 0.00000000 15.00000000 0.00000000 0.00000000 0.00000000 15.00000000" energy_frozen_part=0.00000000 Properties=species:S:1:pos:R:3:velocities:R:3:Z:I:1
H         0.53023779       5.06751923      14.53147671         0.00000000       0.00000000       0.00000000          1
H         0.12108548       7.46614151       1.85100629         0.00000000       0.00000000       0.00000000          1
H        10.32601621       6.23845925       2.43059987         0.00000000       0.00000000       0.00000000          1
H         7.10189589       9.25039065      12.41941419         0.00000000       0.00000000       0.00000000          1
H        13.36804277      10.93729266       8.59081211         0.00000000       0.00000000       0.00000000          1
H        12.47421908      11.15729695       6.14163704         0.00000000       0.00000000       0.00000000          1
6
pbc=[F, F, F] list_num_par=6 frozen=false iter=189 energy=-0.07847688 Lattice="15.00000000 0.00000000 0.00000000 0.00000000 15.00000000 0.00000000 0.00000000 0.00000000 15.00000000" energy_frozen_part=0.00000000 Properties=species:S:1:pos:R:3:velocities:R:3:Z:I:1
H        11.85874803       0.24013488       3.21018845         0.00000000       0.00000000       0.00000000          1
H         3.96068346       4.60499098       6.00163085         0.00000000       0.00000000       0.00000000          1
H        14.03560404      11.01362640      11.13509387         0.00000000       0.00000000       0.00000000          1
H        14.97760022       0.00771821       4.04103851         0.00000000       0.00000000       0.00000000          1
H         2.04785090       2.46877045       9.46233242         0.00000000       0.00000000       0.00000000          1
H         6.59696438      12.41564667       4.09011396         0.00000000       0.00000000       0.00000000          1
6
pbc=[F, F, F] list_num_par=6 frozen=false iter=199 energy=-0.08340084 Lattice="15.00000000 0.00000000 0.00000000 0.00000000 15.00000000 0.00000000 0.00000000 0.00000000 15.00000000" energy_frozen_part=0.00000000 Properties=species:S:1:pos:R:3:velocities:R:3:Z:I:1
H        14.10935615       6.07075542       2.31765554         0.00000000       0.00000000       0.00000000          1
H         1.86758047      11.39074030      12.36083667         0.00000000       0.00000000       0.00000000          1
H         4.16732874      12.82946359      14.25762154         0.00000000       0.00000000       0.00000000          1
H        10.57544083       6.18116945       4.83000316         0.00000000       0.00000000       0.00000000          1
H         2.22250288      11.66122584       2.63691202         0.00000000       0.00000000       0.00000000          1
H        11.40086452       9.77475184       0.43131852         0.00000000       0.00000000       0.00000000          1
6
pbc=[F, F, F] list_num_par=6 frozen=false iter=209 energy=-0.08845163 Lattice="15.00000000 0.00000000 0.00000000 0.00000000 15.00000000 0.00000000 0.00000000 0.00000000 15.00000000" energy_frozen_part=0.00000000 Properties=species:S:1:pos:R:3:velocities:R:3:Z:I:1
H         6.80047642      11.84040421       2.78829714         0.00000000       0.00000000       0.00000000          1
H         6.14342722       0.97519085       7.36642853         0.00000000       0.00000000       0.00000000          1
H         4.58357583      10.87088918       7.20768025         0.00000000       0.00000000       0.00000000          1
H         4.06429493       1.27518562      11.32366891         0.00000000       0.00000000       0.00000000          1
H         5.51623396      13.98781574       5.54959679         0.00000000       0.00000000       0.00000000          1
H         0.14301483       5.97119892       4.90533929         0.00000000       0.00000000       0.00000000          1
6
pbc=[F, F, F] list_num_par=6 frozen=false iter=219 energy=-0.09279013 Lattice="15.00000000 0.00000000 0.00000000 0.00000000 15.00000000 0.00000000 0.00000000 0.00000000 15.00000000" energy_frozen_part=0.00000000 Properties=species:S:1:pos:R:3:velocities:R:3:Z:I:1
H        14.30833792       3.59373079       4.22007166         0.00000000       0.00000000       0.00000000          1
H         5.61498026       1.87585366      11.64284010         0.00000000       0.00000000       0.00000000          1
H         7.70016776       5.26324500       4.22127518         0.00000000       0.00000000       0.00000000          1
H        13.00842338       5.83501365       3.71418764         0.00000000       0.00000000       0.00000000          1
H        12.10091522      10.27918463       5.99600019         0.00000000       0.00000000       0.00000000          1
H        12.71654986       1.43658640      13.33742060         0.00000000       0.00000000       0.00000000          1
6
pbc=[F, F, F] list_num_par=6 frozen=false iter=229 energy=-0.09733028 Lattice="15.00000000 0.00000000 0.00000000 0.00000000 15.00000000 0.00000000 0.00000000 0.00000000 15.00000000" energy_frozen_part=0.00000000 Properties=species:S:1:pos:R:3:velocities:R:3:Z:I:1
H         9.06086479       5.32768164       1.08070956         0.00000000       0.00000000       0.00000000          1
H         0.04456266      12.51857950       4.36866376         0.00000000       0.00000000       0.00000000          1
H         3.96597552       9.70092546      13.88715578         0.00000000       0.00000000       0.00000000          1
H         6.20254225       2.53733435       5.58386550         0.00000000       0.00000000       0.00000000          1
H         6.97481001       7.60679905       0.96729921         0.00000000       0.00000000       0.00000000          1
H        10.90929738       8.03403381       4.41766238         0.00000000       0.00000000       0.00000000          1
6
pbc=[F, F, F] list_num_par=6 frozen=false iter=239 energy=-0.09933774 Lattice="15.00000000 0.00000000 0.00000000 0.00000000 15.00000000 0.00000000 0.00000000 0.00000000 15.00000000" energy_frozen_part=0.00000000 Properties=species:S:1:pos:R:3:velocities:R:3:Z:I:1
H         3.42135223      13.39551385      10.39608204         0.00000000       0.00000000       0.00000000          1
H         0.24234451       6.31562801      12.07241728         0.00000000       0.00000000       0.00000000          1
H         9.52808892       7.89998499       6.89292594         0.00000000       0.00000000       0.00000000          1
H         1.94226006       9.90252721       4.42977644         0.00000000       0.00000000       0.00000000          1
H        14.75626801      10.83698851       3.28799066         0.00000000       0.00000000       0.00000000          1
H         9.16402885       5.26625426       7.52852608         0.00000000       0.00000000       0.00000000          1
6
pbc=[F, F, F] list_num_par=6 frozen=false iter=249 energy=-0.10138960 Lattice="15.00000000 0.00000000 0.00000000 0.00000000 15.00000000 0.00000000 0.00000000 0.00000000 15.00000000" energy_frozen_part=0.00000000 Properties=species:S:1:pos:R:3:velocities:R:3:Z:I:1
H         7.15335978       8.03186679       1.59677861         0.00000000       0.00000000       0.00000000          1
H        10.40603084       4.82949669      12.18459373         0.00000000       0.00000000       0.00000000          1
H         0.59300355      10.90323626       5.27022979         0.00000000       0.00000000       0.00000000          1
H         4.97633981       9.33876436      14.93622847         0.00000000       0.00000000       0.00000000          1
H         6.40776805      10.54497372       2.69597783         0.00000000       0.00000000       0.00000000          1
H         0.29927085       0.56644872       9.69646526         0.00000000       0.00000000       0.00000000          1
6
pbc=[F, F, F] list_num_par=6 frozen=false iter=259 energy=-0.10283913 Lattice="15.00000000 0.00000000 0.00000000 0.00000000 15.00000000 0.00000000 0.00000000 0.00000000 15.00000000" energy_frozen_part=0.00000000 Properties=species:S:1:pos:R:3:velocities:R:3:Z:I:1
H         5.81937281       1.30868354       3.55185248         0.00000000       0.00000000       0.00000000          1
H        12.75780647       6.02792469       3.45819809         0.00000000       0.00000000       0.00000000          1
H         4.99397616       5.55353862      14.65820631         0.00000000       0.00000000       0.00000000          1
H        12.63955018       7.32179131       7.40402410         0.00000000       0.00000000       0.00000000          1
H         7.26317828       4.61833269       0.10642348         0.00000000       0.00000000       0.00000000          1
H        10.82034252       3.43434652       3.67922893         0.00000000       0.00000000       0.00000000          1
6
pbc=[F, F, F] list_num_par=6 frozen=false iter=269 energy=-0.10661729 Lattice="15.00000000 0.00000000 0.00000000 0.00000000 15.00000000 0.00000000 0.00000000 0.00000000 15.00000000" energy_frozen_part=0.00000000 Properties=species:S:1:pos:R:3:velocities:R:3:Z:I:1
H         1.90055389      12.31366880       3.87787111         0.00000000       0.00000000       0.00000000          1
H         0.72336195       6.55340413      12.62854894         0.00000000       0.00000000       0.00000000          1
H        12.21102687       0.62328922       5.93728535         0.00000000       0.00000000       0.00000000          1
H         1.66316071       1.98922078      14.19041802         0.00000000       0.00000000       0.00000000          1
H         2.80754114      10.96865230       1.63469647         0.00000000       0.00000000       0.00000000          1
H         8.10970472       6.10450374       9.82839309         0.00000000       0.00000000       0.00000000          1
6
pbc=[F, F, F] list_num_par=6 frozen=false iter=279 energy=-0.10812437 Lattice="15.00000000 0.00000000 0.00000000 0.00000000 15.00000000 0.00000000 0.00000000 0.00000000 15.00000000" energy_frozen_part=0.00000000 Properties=species:S:1:pos:R:3:velocities:R:3:Z:I:1
H         8.74416922       6.37709226       3.63368218         0.00000000       0.00000000       0.00000000          1
H         6.70146379       0.19906031       5.20510391         0.00000000       0.00000000       0.00000000          1
H        12.97367669       5.93955735      13.99015098         0.00000000       0.00000000       0.00000000          1
H        14.17356917       0.51944524      13.96357291         0.00000000       0.00000000       0.00000000          1
H         3.39729394       4.04158044       2.04696731         0.00000000       0.00000000       0.00000000          1
H        11.31020340       7.41062924       3.28582537         0.00000000       0.00000000       0.00000000          1
6
pbc=[F, F, F] list_num_par=6 frozen=false iter=289 energy=-0.10984106 Lattice="15.00000000 0.00000000 0.00000000 0.00000000 15.00000000 0.00000000 0.00000000 0.00000000 15.00000000" energy_frozen_part=0.00000000 Properties=species:S:1:pos:R:3:velocities:R:3:Z:I:1
H        11.17425644       6.86801572       6.53181995         0.00000000       0.00000000       0.00000000          1
H         2.26042704       2.98548298       7.27294256         0.00000000       0.00000000       0.00000000          1
H         1.62871322       5.39335876       5.96131039         0.00000000       0.00000000       0.00000000          1
H        10.72956496      11.97931641      14.70642177         0.00000000       0.00000000       0.00000000          1
H         6.85236236      11.58556073      12.23367642         0.00000000       0.00000000       0.00000000          1
H         9.19734489      14.83204200       0.98785400         0.00000000       0.00000000       0.00000000          1
6
pbc=[F, F, F] list_num_par=6 frozen=false iter=299 energy=-0.11567328 Lattice="15.00000000 0.00000000 0.00000000 0.00000000 15.00000000 0.00000000 0.00000000 0.00000000 15.00000000" energy_frozen_part=0.00000000 Properties=species:S:1:pos:R:3:velocities:R:3:Z:I:1
H        14.85036967      12.54240991       2.10869062         0.00000000       0.00000000       0.00000000          1
H         0.89730794       3.12279851       8.15989344         0.00000000       0.00000000       0.00000000          1
H         0.75611444       5.48441415       6.58855376         0.00000000       0.00000000       0.00000000          1
H         9.19885976      13.54549390      14.92966445         0.00000000       0.00000000       0.00000000          1
H         5.18385891      12.96935276      12.13696089         0.00000000       0.00000000       0.00000000          1
H        10.81965479      11.52864192       4.14015650         0.00000000       0.00000000       0.00000000          1
6
pbc=[F, F, F] list_num_par=6 frozen=false iter=309 energy=-0.12037078 Lattice="15.00000000 0.00000000 0.00000000 0.00000000 15.00000000 0.00000000 0.00000000 0.00000000 15.00000000" energy_frozen_part=0.00000000 Properties=species:S:1:pos:R:3:velocities:R:3:Z:I:1
H         4.83803498      13.38021089      14.32866949         0.00000000       0.00000000       0.00000000          1
H         5.12015598       7.47120234       5.76400715         0.00000000       0.00000000       0.00000000          1