6
pbc=[F, F, F] list_num_par=6 frozen=false iter=20000 energy=-1.26974174 Lattice="15.00000000 0.00000000 0.00000000 0.00000000 15.00000000 0.00000000 0.00000000 0.00000000 15.00000000" energy_frozen_part=0.00000000 Properties=species:S:1:pos:R:3:velocities:R:3:Z:I:1
H         3.48938050       0.54412961      11.96506216         0.00000000       0.00000000       0.00000000          1
H         1.31883870       2.06646125      11.08442501         0.00000000       0.00000000       0.00000000          1
H         5.14070348       1.82693963      10.11255442         0.00000000       0.00000000       0.00000000          1
H         2.97016420       3.34927078       9.23191513         0.00000000       0.00000000       0.00000000          1
H         3.65764895       3.33255825      11.93956272         0.00000000       0.00000000       0.00000000          1
H         2.80189298       0.56084697       9.25741341         0.00000000       0.00000000       0.00000000          1
6
pbc=[F, F, F] list_num_par=6 frozen=false iter=20000 energy=-1.26974174 Lattice="15.00000000 0.00000000 0.00000000 0.00000000 15.00000000 0.00000000 0.00000000 0.00000000 15.00000000" energy_frozen_part=0.00000000 Properties=species:S:1:pos:R:3:velocities:R:3:Z:I:1
H         3.48947833       0.54416000      11.96497732         0.00000000       0.00000000       0.00000000          1
H         1.31886536       2.06650237      11.08453238         0.00000000       0.00000000       0.00000000          1
H         5.14069100       1.82709151      10.11244697         0.00000000       0.00000000       0.00000000          1
H         2.97008127       3.34944533       9.23200505         0.00000000       0.00000000       0.00000000          1
H         3.65770321       3.33258649      11.93961413         0.00000000       0.00000000       0.00000000          1
H         2.80185182       0.56101591       9.25736446         0.00000000       0.00000000       0.00000000          1
6
pbc=[F, F, F] list_num_par=6 frozen=false iter=20000 energy=-1.26974174 Lattice="15.00000000 0.00000000 0.00000000 0.00000000 15.00000000 0.00000000 0.00000000 0.00000000 15.00000000" energy_frozen_part=0.00000000 Properties=species:S:1:pos:R:3:velocities:R:3:Z:I:1
H         3.48938465       0.54411588      11.96503963         0.00000000       0.00000000       0.00000000          1
H         1.31884656       2.06647106      11.08442910         0.00000000       0.00000000       0.00000000          1
H         5.14070436       1.82694672      10.11252809         0.00000000       0.00000000       0.00000000          1
H         2.97016245       3.34930166       9.23192729         0.00000000       0.00000000       0.00000000          1
H         3.65766810       3.33254354      11.93956797         0.00000000       0.00000000       0.00000000          1
H         2.80188216       0.56087142       9.25739565         0.00000000       0.00000000       0.00000000          1
6
pbc=[F, F, F] list_num_par=6 frozen=false iter=20000 energy=-1.26974174 Lattice="15.00000000 0.00000000 0.00000000 0.00000000 15.00000000 0.00000000 0.00000000 0.00000000 15.00000000" energy_frozen_part=0.00000000 Properties=species:S:1:pos:R:3:velocities:R:3:Z:I:1
H         3.28708696       0.48129822      11.92825188         0.00000000       0.00000000       0.00000000          1
H         0.55982911       0.79806936      12.44400759         0.00000000       0.00000000       0.00000000          1
H         3.35354059       3.00408412      10.73017337         0.00000000       0.00000000       0.00000000          1
H         0.62628510       3.32086066      11.24592494         0.00000000       0.00000000       0.00000000          1
H         2.38208792       2.71945003      13.33392996         0.00000000       0.00000000       0.00000000          1
H         1.53127913       1.08270061       9.84025547         0.00000000       0.00000000       0.00000000          1
6
pbc=[F, F, F] list_num_par=6 frozen=false iter=20000 energy=-1.26974174 Lattice="15.00000000 0.00000000 0.00000000 0.00000000 15.00000000 0.00000000 0.00000000 0.00000000 15.00000000" energy_frozen_part=0.00000000 Properties=species:S:1:pos:R:3:velocities:R:3:Z:I:1
H         3.48957359       0.54413496      11.96492920         0.00000000       0.00000000       0.00000000          1
H         1.31891538       2.06645880      11.08453866         0.00000000       0.00000000       0.00000000          1
H         5.14072978       1.82714371      10.11240440         0.00000000       0.00000000       0.00000000          1
H         2.97007601       3.34945972       9.23200949         0.00000000       0.00000000       0.00000000          1
H         3.65773862       3.33256615      11.93961385         0.00000000       0.00000000       0.00000000          1
H         2.80190613       0.56102545       9.25732751         0.00000000       0.00000000       0.00000000          1
6
pbc=[F, F, F] list_num_par=6 frozen=false iter=20000 energy=-1.26974174 Lattice="15.00000000 0.00000000 0.00000000 0.00000000 15.00000000 0.00000000 0.00000000 0.00000000 15.00000000" energy_frozen_part=0.00000000 Properties=species:S:1:pos:R:3:velocities:R:3:Z:I:1
H         3.48947187       0.54415191      11.96497392         0.00000000       0.00000000       0.00000000          1
H         1.31886374       2.06650897      11.08453000         0.00000000       0.00000000       0.00000000          1
H         5.14068580       1.82709518      10.11245006         0.00000000       0.00000000       0.00000000          1
H         2.97008214       3.34944311       9.23200745         0.00000000       0.00000000       0.00000000          1
H         3.65770528       3.33258164      11.93962284         0.00000000       0.00000000       0.00000000          1
H         2.80184926       0.56101458       9.25736306         0.00000000       0.00000000       0.00000000          1
6
pbc=[F, F, F] list_num_par=6 frozen=false iter=20000 energy=-1.26974174 Lattice="15.00000000 0.00000000 0.00000000 0.00000000 15.00000000 0.00000000 0.00000000 0.00000000 15.00000000" energy_frozen_part=0.00000000 Properties=species:S:1:pos:R:3:velocities:R:3:Z:I:1
H         3.28707527       0.48130032      11.92823737         0.00000000       0.00000000       0.00000000          1
H         0.55981819       0.79808195      12.44399201         0.00000000       0.00000000       0.00000000          1
H         3.35353654       3.00409622      10.73017235         0.00000000       0.00000000       0.00000000          1
H         0.62627317       3.32087841      11.24592191         0.00000000       0.00000000       0.00000000          1
H         2.38207889       2.71945213      13.33392178         0.00000000       0.00000000       0.00000000          1
H         1.53127279       1.08272521       9.84023735         0.00000000       0.00000000       0.00000000          1
6
pbc=[F, F, F] list_num_par=6 frozen=false iter=20000 energy=-1.26974174 Lattice="15.00000000 0.00000000 0.00000000 0.00000000 15.00000000 0.00000000 0.00000000 0.00000000 15.00000000" energy_frozen_part=0.00000000 Properties=species:S:1:pos:R:3:velocities:R:3:Z:I:1
H         3.48956292       0.54413508      11.96492775         0.00000000       0.00000000       0.00000000          1
H         1.31891654       2.06645493      11.08452901         0.00000000       0.00000000       0.00000000          1
H         5.14072308       1.82713693      10.11239831         0.00000000       0.00000000       0.00000000          1
H         2.97007193       3.34945408       9.23199810         0.00000000       0.00000000       0.00000000          1
H         3.65773299       3.33256971      11.93960973         0.00000000       0.00000000       0.00000000          1
H         2.80190173       0.56101807       9.25732384         0.00000000       0.00000000       0.00000000          1
6
pbc=[F, F, F] list_num_par=6 frozen=false iter=20000 energy=-1.26974174 Lattice="15.00000000 0.00000000 0.00000000 0.00000000 15.00000000 0.00000000 0.00000000 0.00000000 15.00000000" energy_frozen_part=0.00000000 Properties=species:S:1:pos:R:3:velocities:R:3:Z:I:1
H         3.48956471       0.54413296      11.96493469         0.00000000       0.00000000       0.00000000          1
H         1.31890811       2.06644934      11.08455660         0.00000000       0.00000000       0.00000000          1
H         5.14071564       1.82713193      10.11239472         0.00000000       0.00000000       0.00000000          1
H         2.97005686       3.34945030       9.23201157         0.00000000       0.00000000       0.00000000          1
H         3.65773906       3.33257043      11.93961002         0.00000000       0.00000000       0.00000000          1
H         2.80188356       0.56101946       9.25733439         0.00000000       0.00000000       0.00000000          1
6
pbc=[F, F, F] list_num_par=6 frozen=false iter=20000 energy=-1.26974174 Lattice="15.00000000 0.00000000 0.00000000 0.00000000 15.00000000 0.00000000 0.00000000 0.00000000 15.00000000" energy_frozen_part=0.00000000 Properties=species:S:1:pos:R:3:velocities:R:3:Z:I:1
H         3.49004915       0.54415704      11.96475894         0.00000000       0.00000000       0.00000000          1
H         1.31925913       2.06595285      11.08380261         0.00000000       0.00000000       0.00000000          1
H         5.14141622       1.82765160      10.11276087         0.00000000       0.00000000       0.00000000          1
H         2.97062325       3.34945675       9.23180055         0.00000000       0.00000000       0.00000000          1
H         3.65751096       3.33263362      11.93960031         0.00000000       0.00000000       0.00000000          1
H         2.80316111       0.56098232       9.25695703         0.00000000       0.00000000       0.00000000          1
6
pbc=[F, F, F] list_num_par=6 frozen=false iter=20000 energy=-1.26974174 Lattice="15.00000000 0.00000000 0.00000000 0.00000000 15.00000000 0.00000000 0.00000000 0.00000000 15.00000000" energy_frozen_part=0.00000000 Properties=species:S:1:pos:R:3:velocities:R:3:Z:I:1
H         3.48999005       0.54422528      11.96474082         0.00000000       0.00000000       0.00000000          1
H         1.31923127       2.06604793      11.08376064         0.00000000       0.00000000       0.00000000          1
H         5.14137452       1.82763744      10.11270015         0.00000000       0.00000000       0.00000000          1
H         2.97061128       3.34946927       9.23172582         0.00000000       0.00000000       0.00000000          1
H         3.65751796       3.33269726      11.93951846         0.00000000       0.00000000       0.00000000          1
H         2.80308924       0.56099680       9.25694359         0.00000000       0.00000000       0.00000000          1
6
pbc=[F, F, F] list_num_par=6 frozen=false iter=20000 energy=-1.26974174 Lattice="15.00000000 0.00000000 0.00000000 0.00000000 15.00000000 0.00000000 0.00000000 0.00000000 15.00000000" energy_frozen_part=0.00000000 Properties=species:S:1:pos:R:3:velocities:R:3:Z:I:1
H         3.49005159       0.54415045      11.96475810         0.00000000       0.00000000       0.00000000          1
H         1.31925639       2.06594974      11.08381307         0.00000000       0.00000000       0.00000000          1
H         5.14140244       1.82763670      10.11273835         0.00000000       0.00000000       0.00000000          1
H         2.97060867       3.34943402       9.23179123         0.00000000       0.00000000       0.00000000          1
H         3.65751315       3.33262248      11.93958674         0.00000000       0.00000000       0.00000000          1
H         2.80314392       0.56095642       9.25696217         0.00000000       0.00000000       0.00000000          1
6
pbc=[F, F, F] list_num_par=6 frozen=false iter=20000 energy=-1.26974174 Lattice="15.00000000 0.00000000 0.00000000 0.00000000 15.00000000 0.00000000 0.00000000 0.00000000 15.00000000" energy_frozen_part=0.00000000 Properties=species:S:1:pos:R:3:velocities:R:3:Z:I:1
H         3.28725775       0.48123204      11.92822563         0.00000000       0.00000000       0.00000000          1
H         0.55997006       0.79787718      12.44390005         0.00000000       0.00000000       0.00000000          1
H         3.35362546       3.00401235      10.73011764         0.00000000       0.00000000       0.00000000          1
H         0.62633120       3.32065456      11.24578092         0.00000000       0.00000000       0.00000000          1
H         2.38210314       2.71936092      13.33384617         0.00000000       0.00000000       0.00000000          1
H         1.53148465       1.08252995       9.84016929         0.00000000       0.00000000       0.00000000          1
6
pbc=[F, F, F] list_num_par=6 frozen=false iter=20000 energy=-1.26974174 Lattice="15.00000000 0.00000000 0.00000000 0.00000000 15.00000000 0.00000000 0.00000000 0.00000000 15.00000000" energy_frozen_part=0.00000000 Properties=species:S:1:pos:R:3:velocities:R:3:Z:I:1
H         3.49004394       0.54415134      11.96474900         0.00000000       0.00000000       0.00000000          1
H         1.31926553       2.06596419      11.08379042         0.00000000       0.00000000       0.00000000          1
H         5.14141434       1.82765748      10.11275531         0.00000000       0.00000000       0.00000000          1
H         2.97063095       3.34947087       9.23180003         0.00000000       0.00000000       0.00000000          1
H         3.65751239       3.33263017      11.93960150         0.00000000       0.00000000       0.00000000          1
H         2.80316163       0.56098987       9.25694595         0.00000000       0.00000000       0.00000000          1
6
pbc=[F, F, F] list_num_par=6 frozen=false iter=20000 energy=-1.26974174 Lattice="15.00000000 0.00000000 0.00000000 0.00000000 15.00000000 0.00000000 0.00000000 0.00000000 15.00000000" energy_frozen_part=0.00000000 Properties=species:S:1:pos:R:3:velocities:R:3:Z:I:1
H         3.49011043       0.54417669      11.96473190         0.00000000       0.00000000       0.00000000          1
H         1.31928744       2.06595050      11.08381230         0.00000000       0.00000000       0.00000000          1
H         5.14141065       1.82766796      10.11266868         0.00000000       0.00000000       0.00000000          1
H         2.97059324       3.34944056       9.23175290         0.00000000       0.00000000       0.00000000          1
H         3.65755242       3.33265777      11.93953354         0.00000000       0.00000000       0.00000000          1
H         2.80314992       0.56095741       9.25695104         0.00000000       0.00000000       0.00000000          1
6
pbc=[F, F, F] list_num_par=6 frozen=false iter=20000 energy=-1.26974174 Lattice="15.00000000 0.00000000 0.00000000 0.00000000 15.00000000 0.00000000 0.00000000 0.00000000 15.00000000" energy_frozen_part=0.00000000 Properties=species:S:1:pos:R:3:velocities:R:3:Z:I:1
H         3.48937462       0.54412467      11.96507661         0.00000000       0.00000000       0.00000000          1
H         1.31883729       2.06645176      11.08440284         0.00000000       0.00000000       0.00000000          1
H         5.14070899       1.82691983      10.11256116         0.00000000       0.00000000       0.00000000          1
H         2.97017245       3.34924359       9.23188509         0.00000000       0.00000000       0.00000000          1
H         3.65764176       3.33255623      11.93954405         0.00000000       0.00000000       0.00000000          1
H         2.80190651       0.56081928       9.25742477         0.00000000       0.00000000       0.00000000          1
6
pbc=[F, F, F] list_num_par=6 frozen=false iter=20000 energy=-1.26974174 Lattice="15.00000000 0.00000000 0.00000000 0.00000000 15.00000000 0.00000000 0.00000000 0.00000000 15.00000000" energy_frozen_part=0.00000000 Properties=species:S:1:pos:R:3:velocities:R:3:Z:I:1
H         3.49007919       0.54415887      11.96477501         0.00000000       0.00000000       0.00000000          1
H         1.31927590       2.06593994      11.08381499         0.00000000       0.00000000       0.00000000          1
H         5.14142484       1.82763488      10.11274237         0.00000000       0.00000000       0.00000000          1
H         2.97062438       3.34941292       9.23178344         0.00000000       0.00000000       0.00000000          1
H         3.65752703       3.33263520      11.93957537         0.00000000       0.00000000       0.00000000          1
H         2.80317208       0.56093759       9.25698076         0.00000000       0.00000000       0.00000000          1
6
pbc=[F, F, F] list_num_par=6 frozen=false iter=20000 energy=-1.26974174 Lattice="15.00000000 0.00000000 0.00000000 0.00000000 15.00000000 0.00000000 0.00000000 0.00000000 15.00000000" energy_frozen_part=0.00000000 Properties=species:S:1:pos:R:3:velocities:R:3:Z:I:1
H         3.48945877       0.54415993      11.96498221         0.00000000       0.00000000       0.00000000          1
H         1.31885383       2.06649880      11.08451482         0.00000000       0.00000000       0.00000000          1
H         5.14068807       1.82710748      10.11248525         0.00000000       0.00000000       0.00000000          1
H         2.97008058       3.34944778       9.23201125         0.00000000       0.00000000       0.00000000          1
H         3.65767160       3.33258747      11.93963122         0.00000000       0.00000000       0.00000000          1
H         2.80186645       0.56101643       9.25736068         0.00000000       0.00000000       0.00000000          1
6
pbc=[F, F, F] list_num_par=6 frozen=false iter=20000 energy=-1.26974174 Lattice="15.00000000 0.00000000 0.00000000 0.00000000 15.00000000 0.00000000 0.00000000 0.00000000 15.00000000" energy_frozen_part=0.00000000 Properties=species:S:1:pos:R:3:velocities:R:3:Z:I:1
H         3.28708248       0.48129429      11.92824595         0.00000000       0.00000000       0.00000000          1
H         0.55982603       0.79806856      12.44400344         0.00000000       0.00000000       0.00000000          1
H         3.35353499       3.00408281      10.73016946         0.00000000       0.00000000       0.00000000          1
H         0.62628063       3.32086156      11.24592991         0.00000000       0.00000000       0.00000000          1
H         2.38208866       2.71944729      13.33392636         0.00000000       0.00000000       0.00000000          1
H         1.53127766       1.08270114       9.84025119         0.00000000       0.00000000       0.00000000          1
6
pbc=[F, F, F] list_num_par=6 frozen=false iter=20000 energy=-1.26974174 Lattice="15.00000000 0.00000000 0.00000000 0.00000000 15.00000000 0.00000000 0.00000000 0.00000000 15.00000000" energy_frozen_part=0.00000000 Properties=species:S:1:pos:R:3:velocities:R:3:Z:I:1
H         3.48935482       0.54411101      11.96504929         0.00000000       0.00000000       0.00000000          1
H         1.31882850       2.06644768      11.08437062         0.00000000       0.00000000       0.00000000          1
H         5.14070720       1.82689894      10.11254050         0.00000000       0.00000000       0.00000000          1
H         2.97017514       3.34923478       9.23186113         0.00000000       0.00000000       0.00000000          1
H         3.65763695       3.33253997      11.93951365         0.00000000       0.00000000       0.00000000          1
H         2.80189542       0.56081082       9.25739660         0.00000000       0.00000000       0.00000000          1
6
pbc=[F, F, F] list_num_par=6 frozen=false iter=20000 energy=-1.26974174 Lattice="15.00000000 0.00000000 0.00000000 0.00000000 15.00000000 0.00000000 0.00000000 0.00000000 15.00000000" energy_frozen_part=0.00000000 Properties=species:S:1:pos:R:3:velocities:R:3:Z:I:1
H         3.48957308       0.54414027      11.96491696         0.00000000       0.00000000       0.00000000          1
H         1.31891414       2.06644678      11.08451436         0.00000000       0.00000000       0.00000000          1
H         5.14073820       1.82716003      10.11240258         0.00000000       0.00000000       0.00000000          1
H         2.97008405       3.34947229       9.23199921         0.00000000       0.00000000       0.00000000          1
H         3.65772014       3.33257331      11.93960855         0.00000000       0.00000000       0.00000000          1
H         2.80192949       0.56103449       9.25730988         0.00000000       0.00000000       0.00000000          1
6
pbc=[F, F, F] list_num_par=6 frozen=false iter=20000 energy=-1.26974174 Lattice="15.00000000 0.00000000 0.00000000 0.00000000 15.00000000 0.00000000 0.00000000 0.00000000 15.00000000" energy_frozen_part=0.00000000 Properties=species:S:1:pos:R:3:velocities:R:3:Z:I:1
H         3.48956907       0.54413247      11.96493642         0.00000000       0.00000000       0.00000000          1
H         1.31890915       2.06645676      11.08455477         0.00000000       0.00000000       0.00000000          1
H         5.14072087       1.82713384      10.11240221         0.00000000       0.00000000       0.00000000          1
H         2.97006659       3.34944810       9.23201472         0.00000000       0.00000000       0.00000000          1
H         3.65773567       3.33256730      11.93961853         0.00000000       0.00000000       0.00000000          1
H         2.80189265       0.56102030       9.25733983         0.00000000       0.00000000       0.00000000          1
6
pbc=[F, F, F] list_num_par=6 frozen=false iter=20000 energy=-1.26974174 Lattice="15.00000000 0.00000000 0.00000000 0.00000000 15.00000000 0.00000000 0.00000000 0.00000000 15.00000000" energy_frozen_part=0.00000000 Properties=species:S:1:pos:R:3:velocities:R:3:Z:I:1
H         3.49003532       0.54410277      11.96474151         0.00000000       0.00000000       0.00000000          1
H         1.31925808       2.06595551      11.08384959         0.00000000       0.00000000       0.00000000          1
H         5.14138813       1.82758915      10.11271370         0.00000000       0.00000000       0.00000000          1
H         2.97060524       3.34943594       9.23182042         0.00000000       0.00000000       0.00000000          1
H         3.65755083       3.33257435      11.93960808         0.00000000       0.00000000       0.00000000          1
H         2.80309208       0.56096467       9.25695447         0.00000000       0.00000000       0.00000000          1
6
pbc=[F, F, F] list_num_par=6 frozen=false iter=20000 energy=-1.26974174 Lattice="15.00000000 0.00000000 0.00000000 0.00000000 15.00000000 0.00000000 0.00000000 0.00000000 15.00000000" energy_frozen_part=0.00000000 Properties=species:S:1:pos:R:3:velocities:R:3:Z:I:1
H         3.48947360       0.54415545      11.96497858         0.00000000       0.00000000       0.00000000          1
H         1.31886762       2.06651225      11.08453146         0.00000000       0.00000000       0.00000000          1
H         5.14068795       1.82709632      10.11245647         0.00000000       0.00000000       0.00000000          1
H         2.97007952       3.34945114       9.23200899         0.00000000       0.00000000       0.00000000          1
H         3.65770463       3.33258161      11.93962343         0.00000000       0.00000000       0.00000000          1
H         2.80184729       0.56101664       9.25736636         0.00000000       0.00000000       0.00000000          1
6
pbc=[F, F, F] list_num_par=6 frozen=false iter=20000 energy=-1.26974174 Lattice="15.00000000 0.00000000 0.00000000 0.00000000 15.00000000 0.00000000 0.00000000 0.00000000 15.00000000" energy_frozen_part=0.00000000 Properties=species:S:1:pos:R:3:velocities:R:3:Z:I:1
H         3.49009439       0.54418753      11.96472310         0.00000000       0.00000000       0.00000000          1
H         1.31927163       2.06596000      11.08381478         0.00000000       0.00000000       0.00000000          1
H         5.14139471       1.82768322      10.11266601         0.00000000       0.00000000       0.00000000          1
H         2.97056693       3.34945659       9.23175587         0.00000000       0.00000000       0.00000000          1
H         3.65753323       3.33266551      11.93953523         0.00000000       0.00000000       0.00000000          1
H         2.80313291       0.56097541       9.25693707         0.00000000       0.00000000       0.00000000          1
6
pbc=[F, F, F] list_num_par=6 frozen=false iter=20000 energy=-1.26974174 Lattice="15.00000000 0.00000000 0.00000000 0.00000000 15.00000000 0.00000000 0.00000000 0.00000000 15.00000000" energy_frozen_part=0.00000000 Properties=species:S:1:pos:R:3:velocities:R:3:Z:I:1
H         3.48956693       0.54413366      11.96493873         0.00000000       0.00000000       0.00000000          1
H         1.31890610       2.06644914      11.08455886         0.00000000       0.00000000       0.00000000          1
H         5.14071917       1.82713672      10.11239725         0.00000000       0.00000000       0.00000000          1
H         2.97005862       3.34945584       9.23202348         0.00000000       0.00000000       0.00000000          1
H         3.65773436       3.33256642      11.93961794         0.00000000       0.00000000       0.00000000          1
H         2.80189335       0.56102430       9.25733603         0.00000000       0.00000000       0.00000000          1
6
pbc=[F, F, F] list_num_par=6 frozen=false iter=20000 energy=-1.26974174 Lattice="15.00000000 0.00000000 0.00000000 0.00000000 15.00000000 0.00000000 0.00000000 0.00000000 15.00000000" energy_frozen_part=0.00000000 Properties=species:S:1:pos:R:3:velocities:R:3:Z:I:1
H         3.28724875       0.48123059      11.92823479         0.00000000       0.00000000       0.00000000          1
H         0.55995580       0.79787066      12.44390139         0.00000000       0.00000000       0.00000000          1
H         3.35360893       3.00400543      10.73011862         0.00000000       0.00000000       0.00000000          1
H         0.62631261       3.32064871      11.24578973         0.00000000       0.00000000       0.00000000          1
H         2.38209002       2.71935712      13.33384661         0.00000000       0.00000000       0.00000000          1
H         1.53147351       1.08251908       9.84017379         0.00000000       0.00000000       0.00000000          1
6
pbc=[F, F, F] list_num_par=6 frozen=false iter=20000 energy=-1.26974174 Lattice="15.00000000 0.00000000 0.00000000 0.00000000 15.00000000 0.00000000 0.00000000 0.00000000 15.00000000" energy_frozen_part=0.00000000 Properties=species:S:1:pos:R:3:velocities:R:3:Z:I:1
H         3.28705880       0.48129236      11.92818055         0.00000000       0.00000000       0.00000000          1
H         0.55980540       0.79806701      12.44396295         0.00000000       0.00000000       0.00000000          1
H         3.35351163       3.00410854      10.73015134         0.00000000       0.00000000       0.00000000          1
H         0.62626181       3.32087949      11.24593239         0.00000000       0.00000000       0.00000000          1
H         2.38208044       2.71942099      13.33391085         0.00000000       0.00000000       0.00000000          1
H         1.53123648       1.08274789       9.84020913         0.00000000       0.00000000       0.00000000          1
6
pbc=[F, F, F] list_num_par=6 frozen=false iter=20000 energy=-1.26974174 Lattice="15.00000000 0.00000000 0.00000000 0.00000000 15.00000000 0.00000000 0.00000000 0.00000000 15.00000000" energy_frozen_part=0.00000000 Properties=species:S:1:pos:R:3:velocities:R:3:Z:I:1
H         3.48937553       0.54412399      11.96507290         0.00000000       0.00000000       0.00000000          1
H         1.31883275       2.06644518      11.08440150         0.00000000       0.00000000       0.00000000          1
H         5.14070558       1.82692800      10.11255666         0.00000000       0.00000000       0.00000000          1
H         2.97016568       3.34923934       9.23188447         0.00000000       0.00000000       0.00000000          1
H         3.65763345       3.33255097      11.93954346         0.00000000       0.00000000       0.00000000          1
H         2.80190074       0.56081112       9.25742172         0.00000000       0.00000000       0.00000000          1
6
pbc=[F, F, F] list_num_par=6 frozen=false iter=20000 energy=-1.26974174 Lattice="15.00000000 0.00000000 0.00000000 0.00000000 15.00000000 0.00000000 0.00000000 0.00000000 15.00000000" energy_frozen_part=0.00000000 Properties=species:S:1:pos:R:3:velocities:R:3:Z:I:1
H         3.49006418       0.54415952      11.96475865         0.00000000       0.00000000       0.00000000          1
H         1.31926398       2.06594772      11.08381589         0.00000000       0.00000000       0.00000000          1
H         5.14141185       1.82766274      10.11274581         0.00000000       0.00000000       0.00000000          1
H         2.97060515       3.34944815       9.23179375         0.00000000       0.00000000       0.00000000          1
H         3.65751267       3.33263581      11.93958995         0.00000000       0.00000000       0.00000000          1
H         2.80316212       0.56097033       9.25696452         0.00000000       0.00000000       0.00000000          1
6
pbc=[F, F, F] list_num_par=6 frozen=false iter=20000 energy=-1.26974174 Lattice="15.00000000 0.00000000 0.00000000 0.00000000 15.00000000 0.00000000 0.00000000 0.00000000 15.00000000" energy_frozen_part=0.00000000 Properties=species:S:1:pos:R:3:velocities:R:3:Z:I:1
H         3.48938509       0.54412797      11.96505935         0.00000000       0.00000000       0.00000000          1
H         1.31883932       2.06645892      11.08442381         0.00000000       0.00000000       0.00000000          1