6
pbc=[F, F, F] list_num_par=6 frozen=false iter=20000 energy=-1.26974174 Lattice="15.00000000 0.00000000 0.00000000 0.00000000 15.00000000 0.00000000 0.00000000 0.00000000 15.00000000" energy_frozen_part=0.00000000 Properties=species:S:1:pos:R:3:velocities:R:3:Z:I:1
H         6.53801955       8.95866476       7.80853048         0.00000000       0.00000000       0.00000000          1
H         8.90057687      11.51273708       9.68031841         0.00000000       0.00000000       0.00000000          1
H         6.43329113      10.32850489      10.24098464         0.00000000       0.00000000       0.00000000          1
H         9.00531301      10.14288542       7.24786412         0.00000000       0.00000000       0.00000000          1
H         8.64282442       8.73147118       9.63130047         0.00000000       0.00000000       0.00000000          1
H         6.79577737      11.73992884       7.85754934         0.00000000       0.00000000       0.00000000          1
6
pbc=[F, F, F] list_num_par=6 frozen=false iter=20000 energy=-1.26974174 Lattice="15.00000000 0.00000000 0.00000000 0.00000000 15.00000000 0.00000000 0.00000000 0.00000000 15.00000000" energy_frozen_part=0.00000000 Properties=species:S:1:pos:R:3:velocities:R:3:Z:I:1
H         6.53950839       8.95614263       7.80444859         0.00000000       0.00000000       0.00000000          1
H         8.89837485      11.50902903       9.68250064         0.00000000       0.00000000       0.00000000          1
H         6.42781340      10.32800004      10.23545096         0.00000000       0.00000000       0.00000000          1
H         9.01007185      10.13717182       7.25148560         0.00000000       0.00000000       0.00000000          1
H         8.63767009       8.72801635       9.63473235         0.00000000       0.00000000       0.00000000          1
H         6.80022045      11.73716074       7.85220358         0.00000000       0.00000000       0.00000000          1
6
pbc=[F, F, F] list_num_par=6 frozen=false iter=20000 energy=-1.26974174 Lattice="15.00000000 0.00000000 0.00000000 0.00000000 15.00000000 0.00000000 0.00000000 0.00000000 15.00000000" energy_frozen_part=0.00000000 Properties=species:S:1:pos:R:3:velocities:R:3:Z:I:1
H         6.53966661       8.95602796       7.80411117         0.00000000       0.00000000       0.00000000          1
H         8.89773108      11.50953084       9.68234628         0.00000000       0.00000000       0.00000000          1
H         6.42741259      10.32788771      10.23509784         0.00000000       0.00000000       0.00000000          1
H         9.00998994      10.13767446       7.25135651         0.00000000       0.00000000       0.00000000          1
H         8.63772627       8.72845484       9.63459412         0.00000000       0.00000000       0.00000000          1
H         6.79967265      11.73710467       7.85186055         0.00000000       0.00000000       0.00000000          1
6
pbc=[F, F, F] list_num_par=6 frozen=false iter=20000 energy=-1.26974174 Lattice="15.00000000 0.00000000 0.00000000 0.00000000 15.00000000 0.00000000 0.00000000 0.00000000 15.00000000" energy_frozen_part=0.00000000 Properties=species:S:1:pos:R:3:velocities:R:3:Z:I:1
H         6.53974105       8.95596171       7.80416761         0.00000000       0.00000000       0.00000000          1
H         8.89778429      11.50953829       9.68231009         0.00000000       0.00000000       0.00000000          1
H         6.42749816      10.32786913      10.23512957         0.00000000       0.00000000       0.00000000          1
H         9.01002970      10.13762443       7.25135847         0.00000000       0.00000000       0.00000000          1
H         8.63782156       8.72845003       9.63462313         0.00000000       0.00000000       0.00000000          1
H         6.79970176      11.73704137       7.85185968         0.00000000       0.00000000       0.00000000          1
6
pbc=[F, F, F] list_num_par=6 frozen=false iter=20000 energy=-1.26974174 Lattice="15.00000000 0.00000000 0.00000000 0.00000000 15.00000000 0.00000000 0.00000000 0.00000000 15.00000000" energy_frozen_part=0.00000000 Properties=species:S:1:pos:R:3:velocities:R:3:Z:I:1
H         6.53947357       8.95615436       7.80440871         0.00000000       0.00000000       0.00000000          1
H         8.89835983      11.50901099       9.68249956         0.00000000       0.00000000       0.00000000          1
H         6.42780706      10.32794185      10.23545817         0.00000000       0.00000000       0.00000000          1
H         9.01002112      10.13722033       7.25144669         0.00000000       0.00000000       0.00000000          1
H         8.63766704       8.72799601       9.63466135         0.00000000       0.00000000       0.00000000          1
H         6.80016269      11.73716540       7.85224354         0.00000000       0.00000000       0.00000000          1
6
pbc=[F, F, F] list_num_par=6 frozen=false iter=20000 energy=-1.26974174 Lattice="15.00000000 0.00000000 0.00000000 0.00000000 15.00000000 0.00000000 0.00000000 0.00000000 15.00000000" energy_frozen_part=0.00000000 Properties=species:S:1:pos:R:3:velocities:R:3:Z:I:1
H         6.53798994       8.95865137       7.80860575         0.00000000       0.00000000       0.00000000          1
H         8.90053753      11.51277543       9.68033695         0.00000000       0.00000000       0.00000000          1
H         6.43326053      10.32851689      10.24104472         0.00000000       0.00000000       0.00000000          1
H         9.00525793      10.14290328       7.24790066         0.00000000       0.00000000       0.00000000          1
H         8.64281095       8.73150660       9.63135874         0.00000000       0.00000000       0.00000000          1
H         6.79570852      11.73991795       7.85759452         0.00000000       0.00000000       0.00000000          1
6
pbc=[F, F, F] list_num_par=6 frozen=false iter=20000 energy=-1.26974174 Lattice="15.00000000 0.00000000 0.00000000 0.00000000 15.00000000 0.00000000 0.00000000 0.00000000 15.00000000" energy_frozen_part=0.00000000 Properties=species:S:1:pos:R:3:velocities:R:3:Z:I:1
H         6.53946100       8.95613254       7.80439309         0.00000000       0.00000000       0.00000000          1
H         8.89835134      11.50901558       9.68241974         0.00000000       0.00000000       0.00000000          1
H         6.42778763      10.32799190      10.23539931         0.00000000       0.00000000       0.00000000          1
H         9.01002595      10.13715439       7.25142051         0.00000000       0.00000000       0.00000000          1
H         8.63763653       8.72799978       9.63466891         0.00000000       0.00000000       0.00000000          1
H         6.80017160      11.73714615       7.85214576         0.00000000       0.00000000       0.00000000          1
6
pbc=[F, F, F] list_num_par=6 frozen=false iter=20000 energy=-1.26974174 Lattice="15.00000000 0.00000000 0.00000000 0.00000000 15.00000000 0.00000000 0.00000000 0.00000000 15.00000000" energy_frozen_part=0.00000000 Properties=species:S:1:pos:R:3:velocities:R:3:Z:I:1
H         6.53974284       8.95595979       7.80415367         0.00000000       0.00000000       0.00000000          1
H         8.89778455      11.50952810       9.68232403         0.00000000       0.00000000       0.00000000          1
H         6.42749236      10.32786057      10.23512535         0.00000000       0.00000000       0.00000000          1
H         9.01003091      10.13763859       7.25135872         0.00000000       0.00000000       0.00000000          1
H         8.63781873       8.72844782       9.63462068         0.00000000       0.00000000       0.00000000          1
H         6.79970201      11.73704548       7.85186583         0.00000000       0.00000000       0.00000000          1
6
pbc=[F, F, F] list_num_par=6 frozen=false iter=20000 energy=-1.26974174 Lattice="15.00000000 0.00000000 0.00000000 0.00000000 15.00000000 0.00000000 0.00000000 0.00000000 15.00000000" energy_frozen_part=0.00000000 Properties=species:S:1:pos:R:3:velocities:R:3:Z:I:1
H         6.53798667       8.95862461       7.80863674         0.00000000       0.00000000       0.00000000          1
H         8.90052362      11.51279331       9.68031490         0.00000000       0.00000000       0.00000000          1
H         6.43326063      10.32853221      10.24105215         0.00000000       0.00000000       0.00000000          1
H         9.00524199      10.14289671       7.24788770         0.00000000       0.00000000       0.00000000          1
H         8.64282138       8.73152083       9.63136794         0.00000000       0.00000000       0.00000000          1
H         6.79569104      11.73990208       7.85757363         0.00000000       0.00000000       0.00000000          1
6
pbc=[F, F, F] list_num_par=6 frozen=false iter=20000 energy=-1.26974174 Lattice="15.00000000 0.00000000 0.00000000 0.00000000 15.00000000 0.00000000 0.00000000 0.00000000 15.00000000" energy_frozen_part=0.00000000 Properties=species:S:1:pos:R:3:velocities:R:3:Z:I:1
H         6.53797697       8.95867717       7.80860045         0.00000000       0.00000000       0.00000000          1
H         8.90060595      11.51278413       9.68024506         0.00000000       0.00000000       0.00000000          1
H         6.43331949      10.32858504      10.24102476         0.00000000       0.00000000       0.00000000          1
H         9.00525823      10.14287813       7.24781934         0.00000000       0.00000000       0.00000000          1
H         8.64282580       8.73151955       9.63130818         0.00000000       0.00000000       0.00000000          1
H         6.79575491      11.73994172       7.85754452         0.00000000       0.00000000       0.00000000          1
6
pbc=[F, F, F] list_num_par=6 frozen=false iter=20000 energy=-1.26974174 Lattice="15.00000000 0.00000000 0.00000000 0.00000000 15.00000000 0.00000000 0.00000000 0.00000000 15.00000000" energy_frozen_part=0.00000000 Properties=species:S:1:pos:R:3:velocities:R:3:Z:I:1
H         6.74248315       8.95935263       7.92551722         0.00000000       0.00000000       0.00000000          1
H         9.36606257      11.35405174       9.65491460         0.00000000       0.00000000       0.00000000          1
H         6.97888690      10.13828053      10.44713076         0.00000000       0.00000000       0.00000000          1
H         9.12964797      10.17512685       7.13330315         0.00000000       0.00000000       0.00000000          1
H         9.06664624       8.58566668       9.42980500         0.00000000       0.00000000       0.00000000          1
H         7.04189099      11.72773318       8.15062499         0.00000000       0.00000000       0.00000000          1
6
pbc=[F, F, F] list_num_par=6 frozen=false iter=20000 energy=-1.26974174 Lattice="15.00000000 0.00000000 0.00000000 0.00000000 15.00000000 0.00000000 0.00000000 0.00000000 15.00000000" energy_frozen_part=0.00000000 Properties=species:S:1:pos:R:3:velocities:R:3:Z:I:1
H         6.53965640       8.95602557       7.80412095         0.00000000       0.00000000       0.00000000          1
H         8.89775997      11.50950575       9.68232304         0.00000000       0.00000000       0.00000000          1
H         6.42742826      10.32789797      10.23509220         0.00000000       0.00000000       0.00000000          1
H         9.00998166      10.13764473       7.25133959         0.00000000       0.00000000       0.00000000          1
H         8.63772080       8.72843127       9.63457887         0.00000000       0.00000000       0.00000000          1
H         6.79969129      11.73710478       7.85185777         0.00000000       0.00000000       0.00000000          1
6
pbc=[F, F, F] list_num_par=6 frozen=false iter=20000 energy=-1.26974174 Lattice="15.00000000 0.00000000 0.00000000 0.00000000 15.00000000 0.00000000 0.00000000 0.00000000 15.00000000" energy_frozen_part=0.00000000 Properties=species:S:1:pos:R:3:velocities:R:3:Z:I:1
H         6.53973374       8.95596439       7.80414017         0.00000000       0.00000000       0.00000000          1
H         8.89777189      11.50951635       9.68233076         0.00000000       0.00000000       0.00000000          1
H         6.42748370      10.32783423      10.23512779         0.00000000       0.00000000       0.00000000          1
H         9.01002206      10.13764514       7.25134990         0.00000000       0.00000000       0.00000000          1
H         8.63780844       8.72843103       9.63459577         0.00000000       0.00000000       0.00000000          1
H         6.79968675      11.73704554       7.85187482         0.00000000       0.00000000       0.00000000          1
6
pbc=[F, F, F] list_num_par=6 frozen=false iter=20000 energy=-1.26974174 Lattice="15.00000000 0.00000000 0.00000000 0.00000000 15.00000000 0.00000000 0.00000000 0.00000000 15.00000000" energy_frozen_part=0.00000000 Properties=species:S:1:pos:R:3:velocities:R:3:Z:I:1
H         6.53975731       8.95597588       7.80414508         0.00000000       0.00000000       0.00000000          1
H         8.89778104      11.50951744       9.68236425         0.00000000       0.00000000       0.00000000          1
H         6.42748155      10.32784386      10.23512854         0.00000000       0.00000000       0.00000000          1
H         9.01005596      10.13765045       7.25138932         0.00000000       0.00000000       0.00000000          1
H         8.63780731       8.72843108       9.63462864         0.00000000       0.00000000       0.00000000          1
H         6.79972114      11.73706038       7.85188116         0.00000000       0.00000000       0.00000000          1
6
pbc=[F, F, F] list_num_par=6 frozen=false iter=20000 energy=-1.26974174 Lattice="15.00000000 0.00000000 0.00000000 0.00000000 15.00000000 0.00000000 0.00000000 0.00000000 15.00000000" energy_frozen_part=0.00000000 Properties=species:S:1:pos:R:3:velocities:R:3:Z:I:1
H         6.53798444       8.95864505       7.80863116         0.00000000       0.00000000       0.00000000          1
H         8.90055031      11.51278420       9.68031930         0.00000000       0.00000000       0.00000000          1
H         6.43328927      10.32852900      10.24106820         0.00000000       0.00000000       0.00000000          1
H         9.00524671      10.14289728       7.24788796         0.00000000       0.00000000       0.00000000          1
H         8.64282635       8.73150836       9.63135836         0.00000000       0.00000000       0.00000000          1
H         6.79571037      11.73992130       7.85759425         0.00000000       0.00000000       0.00000000          1
6
pbc=[F, F, F] list_num_par=6 frozen=false iter=20000 energy=-1.26974174 Lattice="15.00000000 0.00000000 0.00000000 0.00000000 15.00000000 0.00000000 0.00000000 0.00000000 15.00000000" energy_frozen_part=0.00000000 Properties=species:S:1:pos:R:3:velocities:R:3:Z:I:1
H         6.53944394       8.95614664       7.80442729         0.00000000       0.00000000       0.00000000          1
H         8.89840283      11.50896496       9.68245338         0.00000000       0.00000000       0.00000000          1
H         6.42782909      10.32797196      10.23546341         0.00000000       0.00000000       0.00000000          1
H         9.01001788      10.13714175       7.25141488         0.00000000       0.00000000       0.00000000          1
H         8.63764183       8.72796030       9.63465811         0.00000000       0.00000000       0.00000000          1
H         6.80020227      11.73715731       7.85222219         0.00000000       0.00000000       0.00000000          1
6
pbc=[F, F, F] list_num_par=6 frozen=false iter=20000 energy=-1.26974174 Lattice="15.00000000 0.00000000 0.00000000 0.00000000 15.00000000 0.00000000 0.00000000 0.00000000 15.00000000" energy_frozen_part=0.00000000 Properties=species:S:1:pos:R:3:velocities:R:3:Z:I:1
H         6.53949086       8.95614912       7.80438336         0.00000000       0.00000000       0.00000000          1
H         8.89833378      11.50902999       9.68245778         0.00000000       0.00000000       0.00000000          1
H         6.42779534      10.32796071      10.23541584         0.00000000       0.00000000       0.00000000          1
H         9.01003502      10.13721434       7.25142174         0.00000000       0.00000000       0.00000000          1
H         8.63766987       8.72800991       9.63465008         0.00000000       0.00000000       0.00000000          1
H         6.80016179      11.73716021       7.85218817         0.00000000       0.00000000       0.00000000          1
6
pbc=[F, F, F] list_num_par=6 frozen=false iter=20000 energy=-1.26974174 Lattice="15.00000000 0.00000000 0.00000000 0.00000000 15.00000000 0.00000000 0.00000000 0.00000000 15.00000000" energy_frozen_part=0.00000000 Properties=species:S:1:pos:R:3:velocities:R:3:Z:I:1
H         6.53796165       8.95864786       7.80861728         0.00000000       0.00000000       0.00000000          1
H         8.90050920      11.51274501       9.68038503         0.00000000       0.00000000       0.00000000          1
H         6.43321739      10.32850547      10.24106567         0.00000000       0.00000000       0.00000000          1
H         9.00524940      10.14287639       7.24794086         0.00000000       0.00000000       0.00000000          1
H         8.64275710       8.73147510       9.63138673         0.00000000       0.00000000       0.00000000          1
H         6.79570746      11.73991303       7.85761190         0.00000000       0.00000000       0.00000000          1
6
pbc=[F, F, F] list_num_par=6 frozen=false iter=20000 energy=-1.26974174 Lattice="15.00000000 0.00000000 0.00000000 0.00000000 15.00000000 0.00000000 0.00000000 0.00000000 15.00000000" energy_frozen_part=0.00000000 Properties=species:S:1:pos:R:3:velocities:R:3:Z:I:1
H         6.53798789       8.95863463       7.80863000         0.00000000       0.00000000       0.00000000          1
H         8.90054836      11.51278365       9.68031844         0.00000000       0.00000000       0.00000000          1
H         6.43328648      10.32852740      10.24106427         0.00000000       0.00000000       0.00000000          1
H         9.00524000      10.14290446       7.24788341         0.00000000       0.00000000       0.00000000          1
H         8.64283032       8.73151168       9.63135517         0.00000000       0.00000000       0.00000000          1
H         6.79569163      11.73990920       7.85759350         0.00000000       0.00000000       0.00000000          1
6
pbc=[F, F, F] list_num_par=6 frozen=false iter=20000 energy=-1.26974174 Lattice="15.00000000 0.00000000 0.00000000 0.00000000 15.00000000 0.00000000 0.00000000 0.00000000 15.00000000" energy_frozen_part=0.00000000 Properties=species:S:1:pos:R:3:velocities:R:3:Z:I:1
H         6.53965661       8.95603583       7.80410584         0.00000000       0.00000000       0.00000000          1
H         8.89774119      11.50952505       9.68232180         0.00000000       0.00000000       0.00000000          1
H         6.42741956      10.32789972      10.23508621         0.00000000       0.00000000       0.00000000          1
H         9.00998239      10.13765081       7.25133947         0.00000000       0.00000000       0.00000000          1
H         8.63772010       8.72844250       9.63457519         0.00000000       0.00000000       0.00000000          1
H         6.79968605      11.73710582       7.85184461         0.00000000       0.00000000       0.00000000          1
6
pbc=[F, F, F] list_num_par=6 frozen=false iter=20000 energy=-1.26974174 Lattice="15.00000000 0.00000000 0.00000000 0.00000000 15.00000000 0.00000000 0.00000000 0.00000000 15.00000000" energy_frozen_part=0.00000000 Properties=species:S:1:pos:R:3:velocities:R:3:Z:I:1
H         6.53946507       8.95613836       7.80442950         0.00000000       0.00000000       0.00000000          1
H         8.89834705      11.50901257       9.68247621         0.00000000       0.00000000       0.00000000          1
H         6.42778545      10.32799507      10.23544249         0.00000000       0.00000000       0.00000000          1
H         9.01003578      10.13715393       7.25146615         0.00000000       0.00000000       0.00000000          1
H         8.63763083       8.72800440       9.63471657         0.00000000       0.00000000       0.00000000          1
H         6.80018794      11.73714583       7.85218403         0.00000000       0.00000000       0.00000000          1
6
pbc=[F, F, F] list_num_par=6 frozen=false iter=20000 energy=-1.26974174 Lattice="15.00000000 0.00000000 0.00000000 0.00000000 15.00000000 0.00000000 0.00000000 0.00000000 15.00000000" energy_frozen_part=0.00000000 Properties=species:S:1:pos:R:3:velocities:R:3:Z:I:1
H         6.53804072       8.95867252       7.80851718         0.00000000       0.00000000       0.00000000          1
H         8.90056511      11.51277761       9.68031261         0.00000000       0.00000000       0.00000000          1
H         6.43328362      10.32851222      10.24097881         0.00000000       0.00000000       0.00000000          1
H         9.00532195      10.14294041       7.24785947         0.00000000       0.00000000       0.00000000          1
H         8.64284548       8.73150539       9.63128669         0.00000000       0.00000000       0.00000000          1
H         6.79576214      11.73994241       7.85754118         0.00000000       0.00000000       0.00000000          1
6
pbc=[F, F, F] list_num_par=6 frozen=false iter=20000 energy=-1.26974174 Lattice="15.00000000 0.00000000 0.00000000 0.00000000 15.00000000 0.00000000 0.00000000 0.00000000 15.00000000" energy_frozen_part=0.00000000 Properties=species:S:1:pos:R:3:velocities:R:3:Z:I:1
H         6.53798335       8.95862857       7.80861717         0.00000000       0.00000000       0.00000000          1
H         8.90053405      11.51277727       9.68032724         0.00000000       0.00000000       0.00000000          1
H         6.43326201      10.32852043      10.24104585         0.00000000       0.00000000       0.00000000          1
H         9.00524671      10.14288721       7.24789360         0.00000000       0.00000000       0.00000000          1
H         8.64281363       8.73150891       9.63135937         0.00000000       0.00000000       0.00000000          1
H         6.79570669      11.73990759       7.85758447         0.00000000       0.00000000       0.00000000          1
6
pbc=[F, F, F] list_num_par=6 frozen=false iter=20000 energy=-1.26974174 Lattice="15.00000000 0.00000000 0.00000000 0.00000000 15.00000000 0.00000000 0.00000000 0.00000000 15.00000000" energy_frozen_part=0.00000000 Properties=species:S:1:pos:R:3:velocities:R:3:Z:I:1
H         6.53802493       8.95867064       7.80850047         0.00000000       0.00000000       0.00000000          1
H         8.90056158      11.51274731       9.68031481         0.00000000       0.00000000       0.00000000          1
H         6.43329510      10.32845394      10.24098960         0.00000000       0.00000000       0.00000000          1
H         9.00528745      10.14297223       7.24782013         0.00000000       0.00000000       0.00000000          1
H         8.64285867       8.73148000       9.63123280         0.00000000       0.00000000       0.00000000          1
H         6.79572664      11.73993829       7.85758180         0.00000000       0.00000000       0.00000000          1
6
pbc=[F, F, F] list_num_par=6 frozen=false iter=20000 energy=-1.26974174 Lattice="15.00000000 0.00000000 0.00000000 0.00000000 15.00000000 0.00000000 0.00000000 0.00000000 15.00000000" energy_frozen_part=0.00000000 Properties=species:S:1:pos:R:3:velocities:R:3:Z:I:1
H         6.53972605       8.95597411       7.80416304         0.00000000       0.00000000       0.00000000          1
H         8.89779551      11.50954720       9.68229360         0.00000000       0.00000000       0.00000000          1
H         6.42750029      10.32787803      10.23511642         0.00000000       0.00000000       0.00000000          1
H         9.01002196      10.13763392       7.25133762         0.00000000       0.00000000       0.00000000          1
H         8.63782841       8.72846386       9.63460844         0.00000000       0.00000000       0.00000000          1
H         6.79970369      11.73705857       7.85184631         0.00000000       0.00000000       0.00000000          1
6
pbc=[F, F, F] list_num_par=6 frozen=false iter=20000 energy=-1.26974174 Lattice="15.00000000 0.00000000 0.00000000 0.00000000 15.00000000 0.00000000 0.00000000 0.00000000 15.00000000" energy_frozen_part=0.00000000 Properties=species:S:1:pos:R:3:velocities:R:3:Z:I:1
H         6.53966093       8.95602437       7.80411308         0.00000000       0.00000000       0.00000000          1
H         8.89773878      11.50952234       9.68231562         0.00000000       0.00000000       0.00000000          1
H         6.42741392      10.32791208      10.23508586         0.00000000       0.00000000       0.00000000          1
H         9.00998388      10.13763835       7.25134589         0.00000000       0.00000000       0.00000000          1
H         8.63771546       8.72844692       9.63458910         0.00000000       0.00000000       0.00000000          1
H         6.79968323      11.73710156       7.85183300         0.00000000       0.00000000       0.00000000          1
6
pbc=[F, F, F] list_num_par=6 frozen=false iter=20000 energy=-1.26974174 Lattice="15.00000000 0.00000000 0.00000000 0.00000000 15.00000000 0.00000000 0.00000000 0.00000000 15.00000000" energy_frozen_part=0.00000000 Properties=species:S:1:pos:R:3:velocities:R:3:Z:I:1
H         6.74249417       8.95931836       7.92552103         0.00000000       0.00000000       0.00000000          1
H         9.36603915      11.35405309       9.65490994         0.00000000       0.00000000       0.00000000          1
H         6.97887554      10.13827686      10.44712482         0.00000000       0.00000000       0.00000000          1
H         9.12966437      10.17509651       7.13331184         0.00000000       0.00000000       0.00000000          1
H         9.06664483       8.58565566       9.42983424         0.00000000       0.00000000       0.00000000          1
H         7.04188460      11.72770814       8.15059503         0.00000000       0.00000000       0.00000000          1
6
pbc=[F, F, F] list_num_par=6 frozen=false iter=20000 energy=-1.26974174 Lattice="15.00000000 0.00000000 0.00000000 0.00000000 15.00000000 0.00000000 0.00000000 0.00000000 15.00000000" energy_frozen_part=0.00000000 Properties=species:S:1:pos:R:3:velocities:R:3:Z:I:1
H         6.53802585       8.95864363       7.80854113         0.00000000       0.00000000       0.00000000          1
H         8.90054694      11.51276969       9.68030581         0.00000000       0.00000000       0.00000000          1
H         6.43326950      10.32851606      10.24097890         0.00000000       0.00000000       0.00000000          1
H         9.00530758      10.14289794       7.24786855         0.00000000       0.00000000       0.00000000          1
H         8.64281783       8.73149730       9.63131988         0.00000000       0.00000000       0.00000000          1
H         6.79575176      11.73992168       7.85752944         0.00000000       0.00000000       0.00000000          1
6
pbc=[F, F, F] list_num_par=6 frozen=false iter=20000 energy=-1.26974174 Lattice="15.00000000 0.00000000 0.00000000 0.00000000 15.00000000 0.00000000 0.00000000 0.00000000 15.00000000" energy_frozen_part=0.00000000 Properties=species:S:1:pos:R:3:velocities:R:3:Z:I:1
H         6.53946711       8.95613143       7.80438799         0.00000000       0.00000000       0.00000000          1
H         8.89835579      11.50900588       9.68244794         0.00000000       0.00000000       0.00000000          1
H         6.42778937      10.32798447      10.23540356         0.00000000       0.00000000       0.00000000          1
H         9.01003385      10.13715398       7.25142950         0.00000000       0.00000000       0.00000000          1
H         8.63763771       8.72799133       9.63467141         0.00000000       0.00000000       0.00000000          1
H         6.80019027      11.73715249       7.85216075         0.00000000       0.00000000       0.00000000          1
6
pbc=[F, F, F] list_num_par=6 frozen=false iter=20000 energy=-1.26974174 Lattice="15.00000000 0.00000000 0.00000000 0.00000000 15.00000000 0.00000000 0.00000000 0.00000000 15.00000000" energy_frozen_part=0.00000000 Properties=species:S:1:pos:R:3:velocities:R:3:Z:I:1
H         6.53795303       8.95865295       7.80860939         0.00000000       0.00000000       0.00000000          1
H         8.90054142      11.51271333       9.68037528         0.00000000       0.00000000       0.00000000          1
H         6.43324396      10.32850295      10.24107026         0.00000000       0.00000000       0.00000000          1
H         9.00524121      10.14286933       7.24791457         0.00000000       0.00000000       0.00000000          1
H         8.64276175       8.73144871       9.63136367         0.00000000       0.00000000       0.00000000          1
H         6.79572565      11.73991703       7.85762695         0.00000000       0.00000000       0.00000000          1
6
pbc=[F, F, F] list_num_par=6 frozen=false iter=20000 energy=-1.26974174 Lattice="15.00000000 0.00000000 0.00000000 0.00000000 15.00000000 0.00000000 0.00000000 0.00000000 15.00000000" energy_frozen_part=0.00000000 Properties=species:S:1:pos:R:3:velocities:R:3:Z:I:1
H         6.53948157       8.95614689       7.80440047         0.00000000       0.00000000       0.00000000          1
H         8.89833946      11.50903244       9.68248769         0.00000000       0.00000000       0.00000000          1