6
pbc=[F, F, F] list_num_par=6 frozen=false iter=9 energy=5.79585796 Lattice="15.00000000 0.00000000 0.00000000 0.00000000 15.00000000 0.00000000 0.00000000 0.00000000 15.00000000" energy_frozen_part=0.00000000 Properties=species:S:1:pos:R:3:velocities:R:3:Z:I:1
H        12.16937836       0.17907014       8.91491493         0.00000000       0.00000000       0.00000000          1
H        11.70183406       7.00653359       4.35358507         0.00000000       0.00000000       0.00000000          1
H         9.72618995      10.85400872       9.34549680         0.00000000       0.00000000       0.00000000          1
H         1.52097539       4.18181958      10.18031713         0.00000000       0.00000000       0.00000000          1
H        10.22476931       3.52385328       8.06595303         0.00000000       0.00000000       0.00000000          1
H         8.54616502      10.73427453      10.90183239         0.00000000       0.00000000       0.00000000          1
6
pbc=[F, F, F] list_num_par=6 frozen=false iter=19 energy=1.68705638 Lattice="15.00000000 0.00000000 0.00000000 0.00000000 15.00000000 0.00000000 0.00000000 0.00000000 15.00000000" energy_frozen_part=0.00000000 Properties=species:S:1:pos:R:3:velocities:R:3:Z:I:1
H         7.15448835      12.24311237       7.62840269         0.00000000       0.00000000       0.00000000          1
H        13.69830780      10.77084357       8.00766399         0.00000000       0.00000000       0.00000000          1
H         5.60925143      13.30122551       6.61562541         0.00000000       0.00000000       0.00000000          1
H        14.41312138       5.02833600       9.23100812         0.00000000       0.00000000       0.00000000          1
H         6.96262667       7.37771865       6.87241565         0.00000000       0.00000000       0.00000000          1
H        13.68076223       2.35428260       0.70184224         0.00000000       0.00000000       0.00000000          1
6
pbc=[F, F, F] list_num_par=6 frozen=false iter=29 energy=0.12205321 Lattice="15.00000000 0.00000000 0.00000000 0.00000000 15.00000000 0.00000000 0.00000000 0.00000000 15.00000000" energy_frozen_part=0.00000000 Properties=species:S:1:pos:R:3:velocities:R:3:Z:I:1
H        12.73134760       5.05898603       2.48105497         0.00000000       0.00000000       0.00000000          1
H        12.92008215      13.50272984       1.01812918         0.00000000       0.00000000       0.00000000          1
H         3.96527758      13.78915001       7.22987433         0.00000000       0.00000000       0.00000000          1
H        11.03810305      14.44830845      14.15532572         0.00000000       0.00000000       0.00000000          1
H        10.75535823      12.07192549      14.44138030         0.00000000       0.00000000       0.00000000          1
H         7.51920454       2.71037263       8.51467378         0.00000000       0.00000000       0.00000000          1
6
pbc=[F, F, F] list_num_par=6 frozen=false iter=39 energy=-0.00314186 Lattice="15.00000000 0.00000000 0.00000000 0.00000000 15.00000000 0.00000000 0.00000000 0.00000000 15.00000000" energy_frozen_part=0.00000000 Properties=species:S:1:pos:R:3:velocities:R:3:Z:I:1
H        12.86577426      14.08971409      13.20714215         0.00000000       0.00000000       0.00000000          1
H         9.37358265       1.84555652      14.56145445         0.00000000       0.00000000       0.00000000          1
H         1.27322071      11.78431971       3.24946691         0.00000000       0.00000000       0.00000000          1
H         6.37283657      14.33568621       2.59750586         0.00000000       0.00000000       0.00000000          1
H         9.10346951       8.19870314       7.69585450         0.00000000       0.00000000       0.00000000          1
H         3.46417420       2.35766737       5.60731750         0.00000000       0.00000000       0.00000000          1
6
pbc=[F, F, F] list_num_par=6 frozen=false iter=49 energy=-0.00696453 Lattice="15.00000000 0.00000000 0.00000000 0.00000000 15.00000000 0.00000000 0.00000000 0.00000000 15.00000000" energy_frozen_part=0.00000000 Properties=species:S:1:pos:R:3:velocities:R:3:Z:I:1
H        14.34859797       1.26453078       2.93847013         0.00000000       0.00000000       0.00000000          1
H        10.39396413       9.18230268      10.62771410         0.00000000       0.00000000       0.00000000          1
H        11.59724822       4.33413975       9.22571541         0.00000000       0.00000000       0.00000000          1
H         2.46549118       5.73659355      14.12076752         0.00000000       0.00000000       0.00000000          1
H         1.11885899      13.54887686       4.54460114         0.00000000       0.00000000       0.00000000          1
H        13.47213116       8.96225277       4.18740752         0.00000000       0.00000000       0.00000000          1
6
pbc=[F, F, F] list_num_par=6 frozen=false iter=59 energy=-0.01034903 Lattice="15.00000000 0.00000000 0.00000000 0.00000000 15.00000000 0.00000000 0.00000000 0.00000000 15.00000000" energy_frozen_part=0.00000000 Properties=species:S:1:pos:R:3:velocities:R:3:Z:I:1
H         1.68769282       1.05779184       4.12938625         0.00000000       0.00000000       0.00000000          1
H        10.60203612       9.84206835      10.09604272         0.00000000       0.00000000       0.00000000          1
H         9.29671084       1.92335981       2.00232415         0.00000000       0.00000000       0.00000000          1
H         3.56884665       4.06626081       0.73168149         0.00000000       0.00000000       0.00000000          1
H         6.34866660       3.19731599       8.66083251         0.00000000       0.00000000       0.00000000          1
H         1.02617916      13.05197149       8.43226400         0.00000000       0.00000000       0.00000000          1
6
pbc=[F, F, F] list_num_par=6 frozen=false iter=69 energy=-0.01194159 Lattice="15.00000000 0.00000000 0.00000000 0.00000000 15.00000000 0.00000000 0.00000000 0.00000000 15.00000000" energy_frozen_part=0.00000000 Properties=species:S:1:pos:R:3:velocities:R:3:Z:I:1
H         0.80640211       4.20843407      14.49510308         0.00000000       0.00000000       0.00000000          1
H         6.01065730       4.52190507       6.72527039         0.00000000       0.00000000       0.00000000          1
H         9.74901661       2.47218272       1.92939562         0.00000000       0.00000000       0.00000000          1
H        10.98487047       9.74866688       2.63101865         0.00000000       0.00000000       0.00000000          1
H         7.44230220       7.60054362      13.01444701         0.00000000       0.00000000       0.00000000          1
H        11.57507486       7.34138398       6.94965009         0.00000000       0.00000000       0.00000000          1
6
pbc=[F, F, F] list_num_par=6 frozen=false iter=79 energy=-0.01438921 Lattice="15.00000000 0.00000000 0.00000000 0.00000000 15.00000000 0.00000000 0.00000000 0.00000000 15.00000000" energy_frozen_part=0.00000000 Properties=species:S:1:pos:R:3:velocities:R:3:Z:I:1
H         4.11971820       4.05343727       4.53593711         0.00000000       0.00000000       0.00000000          1
H        10.49368665       4.69197779      14.92794409         0.00000000       0.00000000       0.00000000          1
H         6.10505354       8.35100575       4.72855620         0.00000000       0.00000000       0.00000000          1
H        14.11983028       1.64425762       3.54096572         0.00000000       0.00000000       0.00000000          1
H         3.23021757       9.13822381      14.74149686         0.00000000       0.00000000       0.00000000          1
H         1.18621662      10.66595853      10.34778225         0.00000000       0.00000000       0.00000000          1
6
pbc=[F, F, F] list_num_par=6 frozen=false iter=89 energy=-0.01613462 Lattice="15.00000000 0.00000000 0.00000000 0.00000000 15.00000000 0.00000000 0.00000000 0.00000000 15.00000000" energy_frozen_part=0.00000000 Properties=species:S:1:pos:R:3:velocities:R:3:Z:I:1
H         0.78128602       4.57015657      14.75932547         0.00000000       0.00000000       0.00000000          1
H         5.78183423       5.23078322       7.14570525         0.00000000       0.00000000       0.00000000          1
H        10.02870590       2.79143489       2.15657940         0.00000000       0.00000000       0.00000000          1
H        10.96193880       9.60103931       2.90731289         0.00000000       0.00000000       0.00000000          1
H         7.25752156       7.37482127      13.14301045         0.00000000       0.00000000       0.00000000          1
H        11.45861367       7.30924695       6.93160335         0.00000000       0.00000000       0.00000000          1
6
pbc=[F, F, F] list_num_par=6 frozen=false iter=99 energy=-0.02050964 Lattice="15.00000000 0.00000000 0.00000000 0.00000000 15.00000000 0.00000000 0.00000000 0.00000000 15.00000000" energy_frozen_part=0.00000000 Properties=species:S:1:pos:R:3:velocities:R:3:Z:I:1
H         5.91861740       5.03619584       9.85390505         0.00000000       0.00000000       0.00000000          1
H         5.25156823      14.93848339       0.50986292         0.00000000       0.00000000       0.00000000          1
H         0.10909100       1.18033330       0.08908954         0.00000000       0.00000000       0.00000000          1
H        11.99705076       5.30241504       3.84153534         0.00000000       0.00000000       0.00000000          1
H         3.26399662       5.00213531       6.14718875         0.00000000       0.00000000       0.00000000          1
H        11.48459996       7.56984777       8.00604525         0.00000000       0.00000000       0.00000000          1
6
pbc=[F, F, F] list_num_par=6 frozen=false iter=109 energy=-0.02420866 Lattice="15.00000000 0.00000000 0.00000000 0.00000000 15.00000000 0.00000000 0.00000000 0.00000000 15.00000000" energy_frozen_part=0.00000000 Properties=species:S:1:pos:R:3:velocities:R:3:Z:I:1
H         0.30885906      13.69510188      10.85664096         0.00000000       0.00000000       0.00000000          1
H         3.45963613       1.28049957       6.63797118         0.00000000       0.00000000       0.00000000          1
H         3.85258100      10.07056588       3.42937109         0.00000000       0.00000000       0.00000000          1
H         5.45468713       5.42409750       4.10170601         0.00000000       0.00000000       0.00000000          1
H        11.13620719       4.39879106      13.40299738         0.00000000       0.00000000       0.00000000          1
H         9.45694129       4.13908205       2.74651187         0.00000000       0.00000000       0.00000000          1
6
pbc=[F, F, F] list_num_par=6 frozen=false iter=119 energy=-0.02821786 Lattice="15.00000000 0.00000000 0.00000000 0.00000000 15.00000000 0.00000000 0.00000000 0.00000000 15.00000000" energy_frozen_part=0.00000000 Properties=species:S:1:pos:R:3:velocities:R:3:Z:I:1
H        13.28605125       2.06453204       6.63298974         0.00000000       0.00000000       0.00000000          1
H        11.12076008      13.63614426      13.39431451         0.00000000       0.00000000       0.00000000          1
H        13.84344351       3.71865809      10.39836393         0.00000000       0.00000000       0.00000000          1
H        12.63989653       9.00820808       2.28238989         0.00000000       0.00000000       0.00000000          1
H        13.46578297       8.16439573       8.15679587         0.00000000       0.00000000       0.00000000          1
H         5.01099961       3.02765554      14.62319388         0.00000000       0.00000000       0.00000000          1
6
pbc=[F, F, F] list_num_par=6 frozen=false iter=129 energy=-0.03332142 Lattice="15.00000000 0.00000000 0.00000000 0.00000000 15.00000000 0.00000000 0.00000000 0.00000000 15.00000000" energy_frozen_part=0.00000000 Properties=species:S:1:pos:R:3:velocities:R:3:Z:I:1
H        13.11394925      14.31772505       5.56724721         0.00000000       0.00000000       0.00000000          1
H        12.50694220      14.64169548       0.12306663         0.00000000       0.00000000       0.00000000          1
H         2.07347937      11.63656060       0.71110032         0.00000000       0.00000000       0.00000000          1
H         4.80074173       6.96494234       9.87066948         0.00000000       0.00000000       0.00000000          1
H         2.37262606       4.80148646      11.82873616         0.00000000       0.00000000       0.00000000          1
H        10.38650409       0.95298501       0.54195871         0.00000000       0.00000000       0.00000000          1
6
pbc=[F, F, F] list_num_par=6 frozen=false iter=139 energy=-0.03778711 Lattice="15.00000000 0.00000000 0.00000000 0.00000000 15.00000000 0.00000000 0.00000000 0.00000000 15.00000000" energy_frozen_part=0.00000000 Properties=species:S:1:pos:R:3:velocities:R:3:Z:I:1
H        12.88893156      12.84595942       4.05837869         0.00000000       0.00000000       0.00000000          1
H         8.89498403      12.25535755      13.87468761         0.00000000       0.00000000       0.00000000          1
H        12.26758548       7.05493371      10.46699102         0.00000000       0.00000000       0.00000000          1
H        14.55181421       1.74637259       0.33815424         0.00000000       0.00000000       0.00000000          1
H        14.88555776      14.27419719       1.34871987         0.00000000       0.00000000       0.00000000          1
H         5.49611648       3.41239424      10.70299850         0.00000000       0.00000000       0.00000000          1
6
pbc=[F, F, F] list_num_par=6 frozen=false iter=149 energy=-0.04329715 Lattice="15.00000000 0.00000000 0.00000000 0.00000000 15.00000000 0.00000000 0.00000000 0.00000000 15.00000000" energy_frozen_part=0.00000000 Properties=species:S:1:pos:R:3:velocities:R:3:Z:I:1
H         1.99341258       6.79451500      14.62033896         0.00000000       0.00000000       0.00000000          1
H         1.81371614       3.39598728      10.30365660         0.00000000       0.00000000       0.00000000          1
H        13.16290329       0.71075735       0.08940791         0.00000000       0.00000000       0.00000000          1
H         8.19596493       8.97035659       1.52115492         0.00000000       0.00000000       0.00000000          1
H        10.98229248       5.56791822       3.43605025         0.00000000       0.00000000       0.00000000          1
H        10.66453578      11.58426626       0.29344248         0.00000000       0.00000000       0.00000000          1
6
pbc=[F, F, F] list_num_par=6 frozen=false iter=159 energy=-0.04686711 Lattice="15.00000000 0.00000000 0.00000000 0.00000000 15.00000000 0.00000000 0.00000000 0.00000000 15.00000000" energy_frozen_part=0.00000000 Properties=species:S:1:pos:R:3:velocities:R:3:Z:I:1
H        11.34500873       8.80672523       3.82590352         0.00000000       0.00000000       0.00000000          1
H        12.00029821       9.42799532      13.93737766         0.00000000       0.00000000       0.00000000          1
H        12.87607569       6.02898737      13.90691516         0.00000000       0.00000000       0.00000000          1
H        14.88581266       2.68253988       1.46583633         0.00000000       0.00000000       0.00000000          1
H        10.47570364      14.20786687       8.58228747         0.00000000       0.00000000       0.00000000          1
H         2.25572039       1.28986456      13.15154723         0.00000000       0.00000000       0.00000000          1
6
pbc=[F, F, F] list_num_par=6 frozen=false iter=169 energy=-0.05289965 Lattice="15.00000000 0.00000000 0.00000000 0.00000000 15.00000000 0.00000000 0.00000000 0.00000000 15.00000000" energy_frozen_part=0.00000000 Properties=species:S:1:pos:R:3:velocities:R:3:Z:I:1
H         2.97501785       9.93324577      11.94514024         0.00000000       0.00000000       0.00000000          1
H         4.96456695       6.63862952      12.23271779         0.00000000       0.00000000       0.00000000          1
H         8.63127229       3.64380908      13.04271288         0.00000000       0.00000000       0.00000000          1
H        13.95098175      13.12795938       7.58387254         0.00000000       0.00000000       0.00000000          1
H        11.75808469      11.35574721      10.68638695         0.00000000       0.00000000       0.00000000          1
H         4.46998969       0.58732262       6.18437525         0.00000000       0.00000000       0.00000000          1
6
pbc=[F, F, F] list_num_par=6 frozen=false iter=179 energy=-0.05806585 Lattice="15.00000000 0.00000000 0.00000000 0.00000000 15.00000000 0.00000000 0.00000000 0.00000000 15.00000000" energy_frozen_part=0.00000000 Properties=species:S:1:pos:R:3:velocities:R:3:Z:I:1
H         6.03495990      14.33462302       7.09668457         0.00000000       0.00000000       0.00000000          1
H         7.86032431       0.72614625       0.74457895         0.00000000       0.00000000       0.00000000          1
H        11.59621405       7.39939088       4.63339710         0.00000000       0.00000000       0.00000000          1
H        14.58017062       4.82341446       5.35687103         0.00000000       0.00000000       0.00000000          1
H        14.34990718      11.00426485      12.15839423         0.00000000       0.00000000       0.00000000          1
H         9.45403240      10.11867951       3.31171214         0.00000000       0.00000000       0.00000000          1
6
pbc=[F, F, F] list_num_par=6 frozen=false iter=189 energy=-0.06419202 Lattice="15.00000000 0.00000000 0.00000000 0.00000000 15.00000000 0.00000000 0.00000000 0.00000000 15.00000000" energy_frozen_part=0.00000000 Properties=species:S:1:pos:R:3:velocities:R:3:Z:I:1
H        10.84991082      11.20050326       5.39960548         0.00000000       0.00000000       0.00000000          1
H        11.57776179      13.63569808      12.08397251         0.00000000       0.00000000       0.00000000          1
H         8.50096048       3.82984251       7.99742651         0.00000000       0.00000000       0.00000000          1
H         9.63326642       5.11538349       2.90919244         0.00000000       0.00000000       0.00000000          1
H        14.61648006       6.12070537      11.33893331         0.00000000       0.00000000       0.00000000          1
H         9.93670030      14.29911739      14.92189577         0.00000000       0.00000000       0.00000000          1
6
pbc=[F, F, F] list_num_par=6 frozen=false iter=199 energy=-0.06977135 Lattice="15.00000000 0.00000000 0.00000000 0.00000000 15.00000000 0.00000000 0.00000000 0.00000000 15.00000000" energy_frozen_part=0.00000000 Properties=species:S:1:pos:R:3:velocities:R:3:Z:I:1
H        13.44913599       7.94796817      11.88110685         0.00000000       0.00000000       0.00000000          1
H         0.64930141       7.40540201       8.46118324         0.00000000       0.00000000       0.00000000          1
H         7.04596135       9.28356479       0.07169796         0.00000000       0.00000000       0.00000000          1
H         7.65065017      11.57762934       7.91518293         0.00000000       0.00000000       0.00000000          1
H        12.39358873      11.99567187       3.40105847         0.00000000       0.00000000       0.00000000          1
H        11.70901296       9.05288157       2.06942019         0.00000000       0.00000000       0.00000000          1
6
pbc=[F, F, F] list_num_par=6 frozen=false iter=209 energy=-0.07401672 Lattice="15.00000000 0.00000000 0.00000000 0.00000000 15.00000000 0.00000000 0.00000000 0.00000000 15.00000000" energy_frozen_part=0.00000000 Properties=species:S:1:pos:R:3:velocities:R:3:Z:I:1
H        10.07732821       5.12933489       6.60185579         0.00000000       0.00000000       0.00000000          1
H         4.99707820       2.77052006       4.86200722         0.00000000       0.00000000       0.00000000          1
H         6.18284543       0.25536350      12.04593359         0.00000000       0.00000000       0.00000000          1
H        13.12422958       2.32106802       6.54551488         0.00000000       0.00000000       0.00000000          1
H        13.33985299       0.39655943       0.93362428         0.00000000       0.00000000       0.00000000          1
H        13.38805862       6.49713248       5.68578649         0.00000000       0.00000000       0.00000000          1
6
pbc=[F, F, F] list_num_par=6 frozen=false iter=219 energy=-0.07765595 Lattice="15.00000000 0.00000000 0.00000000 0.00000000 15.00000000 0.00000000 0.00000000 0.00000000 15.00000000" energy_frozen_part=0.00000000 Properties=species:S:1:pos:R:3:velocities:R:3:Z:I:1
H         2.06860636       7.22219956       2.60164784         0.00000000       0.00000000       0.00000000          1
H         4.07460554       7.63382402       1.04534682         0.00000000       0.00000000       0.00000000          1
H        13.78404034      10.69675496      12.36542655         0.00000000       0.00000000       0.00000000          1
H         7.24487501      11.44315658       3.83017077         0.00000000       0.00000000       0.00000000          1
H         4.27512419       6.43599736       6.17499981         0.00000000       0.00000000       0.00000000          1
H        14.38627547       0.49270322       4.17912172         0.00000000       0.00000000       0.00000000          1
6
pbc=[F, F, F] list_num_par=6 frozen=false iter=229 energy=-0.08227360 Lattice="15.00000000 0.00000000 0.00000000 0.00000000 15.00000000 0.00000000 0.00000000 0.00000000 15.00000000" energy_frozen_part=0.00000000 Properties=species:S:1:pos:R:3:velocities:R:3:Z:I:1
H        10.15144975       9.39703881      10.59588372         0.00000000       0.00000000       0.00000000          1
H         5.49839215      14.14235296       5.24383889         0.00000000       0.00000000       0.00000000          1
H        12.23728235       8.72796011       7.01369997         0.00000000       0.00000000       0.00000000          1
H        12.79402482       5.51935514       5.45440328         0.00000000       0.00000000       0.00000000          1
H        14.76172722       1.62534806       3.66839468         0.00000000       0.00000000       0.00000000          1
H        10.15277533       9.35499777      14.82936950         0.00000000       0.00000000       0.00000000          1
6
pbc=[F, F, F] list_num_par=6 frozen=false iter=239 energy=-0.08612989 Lattice="15.00000000 0.00000000 0.00000000 0.00000000 15.00000000 0.00000000 0.00000000 0.00000000 15.00000000" energy_frozen_part=0.00000000 Properties=species:S:1:pos:R:3:velocities:R:3:Z:I:1
H         7.51863306       9.63673229       7.66793155         0.00000000       0.00000000       0.00000000          1
H         7.39456710      11.79330557       5.36810489         0.00000000       0.00000000       0.00000000          1
H         3.80317708       7.22990570      11.99375806         0.00000000       0.00000000       0.00000000          1
H         2.39064747      11.40033668       8.85440750         0.00000000       0.00000000       0.00000000          1
H         2.34960008       3.25238530       4.45044897         0.00000000       0.00000000       0.00000000          1
H        12.95113182       7.56439632      11.35491452         0.00000000       0.00000000       0.00000000          1
6
pbc=[F, F, F] list_num_par=6 frozen=false iter=249 energy=-0.09127170 Lattice="15.00000000 0.00000000 0.00000000 0.00000000 15.00000000 0.00000000 0.00000000 0.00000000 15.00000000" energy_frozen_part=0.00000000 Properties=species:S:1:pos:R:3:velocities:R:3:Z:I:1
H         5.55776788       5.53596289      12.20292616         0.00000000       0.00000000       0.00000000          1
H        11.37303404       1.47708261       1.77663961         0.00000000       0.00000000       0.00000000          1
H        14.00255035       7.04473597      11.42266958         0.00000000       0.00000000       0.00000000          1
H         5.90971053       9.06327757      11.51632048         0.00000000       0.00000000       0.00000000          1
H        10.99937056       3.14737083      12.62022192         0.00000000       0.00000000       0.00000000          1
H         8.50547499       0.58282486      12.59051911         0.00000000       0.00000000       0.00000000          1
6
pbc=[F, F, F] list_num_par=6 frozen=false iter=259 energy=-0.09471716 Lattice="15.00000000 0.00000000 0.00000000 0.00000000 15.00000000 0.00000000 0.00000000 0.00000000 15.00000000" energy_frozen_part=0.00000000 Properties=species:S:1:pos:R:3:velocities:R:3:Z:I:1
H         9.96733325       0.97989938       5.31144830         0.00000000       0.00000000       0.00000000          1
H        10.96734912       0.83489799       1.90927280         0.00000000       0.00000000       0.00000000          1
H        14.68161403       3.06764326      11.20208705         0.00000000       0.00000000       0.00000000          1
H         0.50850629      12.62154906      10.16067393         0.00000000       0.00000000       0.00000000          1
H        13.61193183       8.96184241      12.31242913         0.00000000       0.00000000       0.00000000          1
H        14.20368658       2.21023478       8.83734374         0.00000000       0.00000000       0.00000000          1
6
pbc=[F, F, F] list_num_par=6 frozen=false iter=269 energy=-0.09795760 Lattice="15.00000000 0.00000000 0.00000000 0.00000000 15.00000000 0.00000000 0.00000000 0.00000000 15.00000000" energy_frozen_part=0.00000000 Properties=species:S:1:pos:R:3:velocities:R:3:Z:I:1
H        14.81407958      14.59968318       9.38406343         0.00000000       0.00000000       0.00000000          1
H        11.26189540       4.41024868      11.38656430         0.00000000       0.00000000       0.00000000          1
H         1.85992446       7.40082677       3.94265649         0.00000000       0.00000000       0.00000000          1
H         9.84183162       3.43324973       7.90633326         0.00000000       0.00000000       0.00000000          1
H         7.67238181       1.29062575       2.38187360         0.00000000       0.00000000       0.00000000          1
H        11.64002287       2.61372191       5.29266219         0.00000000       0.00000000       0.00000000          1
6
pbc=[F, F, F] list_num_par=6 frozen=false iter=279 energy=-0.10058022 Lattice="15.00000000 0.00000000 0.00000000 0.00000000 15.00000000 0.00000000 0.00000000 0.00000000 15.00000000" energy_frozen_part=0.00000000 Properties=species:S:1:pos:R:3:velocities:R:3:Z:I:1
H        14.16146595       9.42943239       2.96838683         0.00000000       0.00000000       0.00000000          1
H         9.97314605      11.50231091      13.99622075         0.00000000       0.00000000       0.00000000          1
H        10.00390863       5.96239318      14.42548231         0.00000000       0.00000000       0.00000000          1
H         9.25864954       4.92877660       1.83343091         0.00000000       0.00000000       0.00000000          1
H        14.28329598      11.45423380       0.88201118         0.00000000       0.00000000       0.00000000          1
H         4.17280736       1.57974412       7.59660588         0.00000000       0.00000000       0.00000000          1
6
pbc=[F, F, F] list_num_par=6 frozen=false iter=289 energy=-0.10429196 Lattice="15.00000000 0.00000000 0.00000000 0.00000000 15.00000000 0.00000000 0.00000000 0.00000000 15.00000000" energy_frozen_part=0.00000000 Properties=species:S:1:pos:R:3:velocities:R:3:Z:I:1
H        14.72918390      14.61431894       9.36970064         0.00000000       0.00000000       0.00000000          1
H        11.26176880       4.46753472      11.44963009         0.00000000       0.00000000       0.00000000          1
H         1.83691541       7.41878514       3.88826197         0.00000000       0.00000000       0.00000000          1
H         9.88148650       3.45409778       7.84814079         0.00000000       0.00000000       0.00000000          1
H         7.74606671       1.32995270       2.41895880         0.00000000       0.00000000       0.00000000          1
H        11.61481816       2.53738919       5.35049897         0.00000000       0.00000000       0.00000000          1
6
pbc=[F, F, F] list_num_par=6 frozen=false iter=299 energy=-0.10686368 Lattice="15.00000000 0.00000000 0.00000000 0.00000000 15.00000000 0.00000000 0.00000000 0.00000000 15.00000000" energy_frozen_part=0.00000000 Properties=species:S:1:pos:R:3:velocities:R:3:Z:I:1
H        12.49681256      12.17880227      10.89170011         0.00000000       0.00000000       0.00000000          1
H         9.78385128       0.45656081       8.40774480         0.00000000       0.00000000       0.00000000          1
H         1.40845877      11.71708018       2.28037121         0.00000000       0.00000000       0.00000000          1
H         8.64798405       0.87193639       6.05136492         0.00000000       0.00000000       0.00000000          1
H         7.89236606       4.85997157       4.42731172         0.00000000       0.00000000       0.00000000          1
H        11.66669151       0.85516064       6.90370873         0.00000000       0.00000000       0.00000000          1
6
pbc=[F, F, F] list_num_par=6 frozen=false iter=309 energy=-0.11028080 Lattice="15.00000000 0.00000000 0.00000000 0.00000000 15.00000000 0.00000000 0.00000000 0.00000000 15.00000000" energy_frozen_part=0.00000000 Properties=species:S:1:pos:R:3:velocities:R:3:Z:I:1
H         6.06647156      14.99385626      10.64445640         0.00000000       0.00000000       0.00000000          1
H         4.77011423      13.95520214      13.20770522         0.00000000       0.00000000       0.00000000          1