6
pbc=[F, F, F] list_num_par=6 frozen=false iter=9 energy=104.34537305 Lattice="15.00000000 0.00000000 0.00000000 0.00000000 15.00000000 0.00000000 0.00000000 0.00000000 15.00000000" energy_frozen_part=0.00000000 Properties=species:S:1:pos:R:3:velocities:R:3:Z:I:1
H         9.37792648      10.16900586       5.25036925         0.00000000       0.00000000       0.00000000          1
H         5.25221155       4.26513593      13.50176421         0.00000000       0.00000000       0.00000000          1
H         2.50724927       9.50506173      10.50430422         0.00000000       0.00000000       0.00000000          1
H         5.53973310       3.42000390      14.78635002         0.00000000       0.00000000       0.00000000          1
H         3.43032928      13.40816853      11.94350618         0.00000000       0.00000000       0.00000000          1
H        10.26220529       1.22025040      14.23616240         0.00000000       0.00000000       0.00000000          1
6
pbc=[F, F, F] list_num_par=6 frozen=false iter=19 energy=3.34208190 Lattice="15.00000000 0.00000000 0.00000000 0.00000000 15.00000000 0.00000000 0.00000000 0.00000000 15.00000000" energy_frozen_part=0.00000000 Properties=species:S:1:pos:R:3:velocities:R:3:Z:I:1
H         9.70807107      12.70169695      10.65657325         0.00000000       0.00000000       0.00000000          1
H         8.39892741      14.69218939      13.80983683         0.00000000       0.00000000       0.00000000          1
H         8.86862076       4.58398771      10.00553163         0.00000000       0.00000000       0.00000000          1
H         7.52561644       2.04375894       6.53950836         0.00000000       0.00000000       0.00000000          1
H         6.09202555       4.78971122      14.22229595         0.00000000       0.00000000       0.00000000          1
H         8.64134957       0.51595989       5.79356042         0.00000000       0.00000000       0.00000000          1
6
pbc=[F, F, F] list_num_par=6 frozen=false iter=29 energy=-0.00164680 Lattice="15.00000000 0.00000000 0.00000000 0.00000000 15.00000000 0.00000000 0.00000000 0.00000000 15.00000000" energy_frozen_part=0.00000000 Properties=species:S:1:pos:R:3:velocities:R:3:Z:I:1
H         3.22874360       3.73036877      13.27481727         0.00000000       0.00000000       0.00000000          1
H         5.33655266      13.46992068       2.12493224         0.00000000       0.00000000       0.00000000          1
H         7.14859999      12.91260929       9.62662542         0.00000000       0.00000000       0.00000000          1
H        14.05127103      12.66927657      11.75801098         0.00000000       0.00000000       0.00000000          1
H         1.80306381       3.04198423       6.41680730         0.00000000       0.00000000       0.00000000          1
H        11.41025961       1.31470420       1.53131610         0.00000000       0.00000000       0.00000000          1
6
pbc=[F, F, F] list_num_par=6 frozen=false iter=39 energy=-0.00471923 Lattice="15.00000000 0.00000000 0.00000000 0.00000000 15.00000000 0.00000000 0.00000000 0.00000000 15.00000000" energy_frozen_part=0.00000000 Properties=species:S:1:pos:R:3:velocities:R:3:Z:I:1
H         4.72998458       5.44168219       1.27524904         0.00000000       0.00000000       0.00000000          1
H         4.62955756      14.67728158       6.36146263         0.00000000       0.00000000       0.00000000          1
H         6.21350962       8.54045131      13.74333367         0.00000000       0.00000000       0.00000000          1
H         8.23581756      10.00051431       7.67625437         0.00000000       0.00000000       0.00000000          1
H         1.64140104       3.30034217      12.82814062         0.00000000       0.00000000       0.00000000          1
H         8.94438698       0.70055443       3.90745326         0.00000000       0.00000000       0.00000000          1
6
pbc=[F, F, F] list_num_par=6 frozen=false iter=49 energy=-0.00555967 Lattice="15.00000000 0.00000000 0.00000000 0.00000000 15.00000000 0.00000000 0.00000000 0.00000000 15.00000000" energy_frozen_part=0.00000000 Properties=species:S:1:pos:R:3:velocities:R:3:Z:I:1
H         2.47989894       3.85755420       1.22057869         0.00000000       0.00000000       0.00000000          1
H         6.23327443       0.89060459       7.27882815         0.00000000       0.00000000       0.00000000          1
H         3.39109108      13.84350105      12.78428918         0.00000000       0.00000000       0.00000000          1
H         6.03900775       7.61556943      10.36308308         0.00000000       0.00000000       0.00000000          1
H        11.85694107       6.65833476       9.85572188         0.00000000       0.00000000       0.00000000          1
H         3.46630703      12.50518352       6.20544591         0.00000000       0.00000000       0.00000000          1
6
pbc=[F, F, F] list_num_par=6 frozen=false iter=59 energy=-0.01594648 Lattice="15.00000000 0.00000000 0.00000000 0.00000000 15.00000000 0.00000000 0.00000000 0.00000000 15.00000000" energy_frozen_part=0.00000000 Properties=species:S:1:pos:R:3:velocities:R:3:Z:I:1
H         5.05080678       6.61059994       2.11261519         0.00000000       0.00000000       0.00000000          1
H         4.69402545      10.86828366      12.42359430         0.00000000       0.00000000       0.00000000          1
H         5.72839389       4.41081986       7.55154433         0.00000000       0.00000000       0.00000000          1
H         0.62185512       2.31481361       7.82433145         0.00000000       0.00000000       0.00000000          1
H         2.17691761      14.31017836      14.67530989         0.00000000       0.00000000       0.00000000          1
H         5.64239032       1.95610301      13.08316631         0.00000000       0.00000000       0.00000000          1
6
pbc=[F, F, F] list_num_par=6 frozen=false iter=69 energy=-0.01915492 Lattice="15.00000000 0.00000000 0.00000000 0.00000000 15.00000000 0.00000000 0.00000000 0.00000000 15.00000000" energy_frozen_part=0.00000000 Properties=species:S:1:pos:R:3:velocities:R:3:Z:I:1
H         9.56861551      12.46156957      11.31943899         0.00000000       0.00000000       0.00000000          1
H         6.95614107       6.67326749      10.95705539         0.00000000       0.00000000       0.00000000          1
H         9.55739949       7.25672192       6.82761692         0.00000000       0.00000000       0.00000000          1
H         1.27631740       3.95174099       3.83182787         0.00000000       0.00000000       0.00000000          1
H        13.58263355      14.37299987       8.42689868         0.00000000       0.00000000       0.00000000          1
H         5.54639299      13.06380679       7.92540781         0.00000000       0.00000000       0.00000000          1
6
pbc=[F, F, F] list_num_par=6 frozen=false iter=79 energy=-0.02596094 Lattice="15.00000000 0.00000000 0.00000000 0.00000000 15.00000000 0.00000000 0.00000000 0.00000000 15.00000000" energy_frozen_part=0.00000000 Properties=species:S:1:pos:R:3:velocities:R:3:Z:I:1
H         2.78915509       9.01753701       5.24986502         0.00000000       0.00000000       0.00000000          1
H        12.18886573       3.26868346      10.24547957         0.00000000       0.00000000       0.00000000          1
H        10.49261449      12.55178789       8.12415976         0.00000000       0.00000000       0.00000000          1
H         6.82385693      14.18321785       9.62272835         0.00000000       0.00000000       0.00000000          1
H         7.98373503       9.12188181       1.11056306         0.00000000       0.00000000       0.00000000          1
H         8.63567519      14.76239363      13.99009842         0.00000000       0.00000000       0.00000000          1
6
pbc=[F, F, F] list_num_par=6 frozen=false iter=89 energy=-0.03654013 Lattice="15.00000000 0.00000000 0.00000000 0.00000000 15.00000000 0.00000000 0.00000000 0.00000000 15.00000000" energy_frozen_part=0.00000000 Properties=species:S:1:pos:R:3:velocities:R:3:Z:I:1
H         7.27475051       3.98451005      12.57716709         0.00000000       0.00000000       0.00000000          1
H         3.72871958      11.13589545      11.66175760         0.00000000       0.00000000       0.00000000          1
H         8.99189396       3.27575714       5.09009655         0.00000000       0.00000000       0.00000000          1
H         9.22786560       7.34027854       0.41500304         0.00000000       0.00000000       0.00000000          1
H        11.18417418      11.13805243      12.39396677         0.00000000       0.00000000       0.00000000          1
H        11.65009534       9.44756006       2.30677840         0.00000000       0.00000000       0.00000000          1
6
pbc=[F, F, F] list_num_par=6 frozen=false iter=99 energy=-0.04091776 Lattice="15.00000000 0.00000000 0.00000000 0.00000000 15.00000000 0.00000000 0.00000000 0.00000000 15.00000000" energy_frozen_part=0.00000000 Properties=species:S:1:pos:R:3:velocities:R:3:Z:I:1
H         1.88770007      10.85532684       2.57578164         0.00000000       0.00000000       0.00000000          1
H         5.70262312       5.21503008      13.42342310         0.00000000       0.00000000       0.00000000          1
H        14.54363391      10.45055007       1.62845437         0.00000000       0.00000000       0.00000000          1
H        14.86773791       5.30152807      13.58721449         0.00000000       0.00000000       0.00000000          1
H        11.03134817      13.63816017       4.88433269         0.00000000       0.00000000       0.00000000          1
H         5.32466364       6.91545117      10.24229101         0.00000000       0.00000000       0.00000000          1
6
pbc=[F, F, F] list_num_par=6 frozen=false iter=109 energy=-0.04526262 Lattice="15.00000000 0.00000000 0.00000000 0.00000000 15.00000000 0.00000000 0.00000000 0.00000000 15.00000000" energy_frozen_part=0.00000000 Properties=species:S:1:pos:R:3:velocities:R:3:Z:I:1
H         1.83032346       3.34215276       9.91340521         0.00000000       0.00000000       0.00000000          1
H        14.50872884       2.54487432      10.69225532         0.00000000       0.00000000       0.00000000          1
H         4.11126230       9.65893169       2.73802264         0.00000000       0.00000000       0.00000000          1
H        10.91284133      14.20333147       2.43135070         0.00000000       0.00000000       0.00000000          1
H         4.06003317       2.58756643       6.57243619         0.00000000       0.00000000       0.00000000          1
H         0.37401810       8.86583537       1.84278322         0.00000000       0.00000000       0.00000000          1
6
pbc=[F, F, F] list_num_par=6 frozen=false iter=119 energy=-0.04811079 Lattice="15.00000000 0.00000000 0.00000000 0.00000000 15.00000000 0.00000000 0.00000000 0.00000000 15.00000000" energy_frozen_part=0.00000000 Properties=species:S:1:pos:R:3:velocities:R:3:Z:I:1
H         8.66196950      10.04916236       5.35414384         0.00000000       0.00000000       0.00000000          1
H         2.31923047       8.51961136      13.92689220         0.00000000       0.00000000       0.00000000          1
H         1.92838145       6.08243076       9.94789586         0.00000000       0.00000000       0.00000000          1
H         2.95603715       6.56298050       5.58351645         0.00000000       0.00000000       0.00000000          1
H        10.74434892       2.58520952      10.82138554         0.00000000       0.00000000       0.00000000          1
H         9.72035939       4.68475642       7.62999283         0.00000000       0.00000000       0.00000000          1
6
pbc=[F, F, F] list_num_par=6 frozen=false iter=129 energy=-0.05187961 Lattice="15.00000000 0.00000000 0.00000000 0.00000000 15.00000000 0.00000000 0.00000000 0.00000000 15.00000000" energy_frozen_part=0.00000000 Properties=species:S:1:pos:R:3:velocities:R:3:Z:I:1
H         8.67078726       9.99447331       5.30155618         0.00000000       0.00000000       0.00000000          1
H         2.38584074       8.56505936      13.88706394         0.00000000       0.00000000       0.00000000          1
H         1.97326199       6.13837067       9.87562131         0.00000000       0.00000000       0.00000000          1
H         2.96825826       6.50641209       5.54709264         0.00000000       0.00000000       0.00000000          1
H        10.76035803       2.55436991      10.81852097         0.00000000       0.00000000       0.00000000          1
H         9.77327223       4.68401877       7.74990789         0.00000000       0.00000000       0.00000000          1
6
pbc=[F, F, F] list_num_par=6 frozen=false iter=139 energy=-0.05482654 Lattice="15.00000000 0.00000000 0.00000000 0.00000000 15.00000000 0.00000000 0.00000000 0.00000000 15.00000000" energy_frozen_part=0.00000000 Properties=species:S:1:pos:R:3:velocities:R:3:Z:I:1
H        12.14129642       4.87249229      11.81635288         0.00000000       0.00000000       0.00000000          1
H        11.51628431       0.84214069       3.46030100         0.00000000       0.00000000       0.00000000          1
H         9.15210310       6.62624523      10.57401848         0.00000000       0.00000000       0.00000000          1
H         3.99428090       8.60759234       7.94352117         0.00000000       0.00000000       0.00000000          1
H         1.32784374      10.77964766      11.18817187         0.00000000       0.00000000       0.00000000          1
H         6.91530135      12.50396432       8.63585232         0.00000000       0.00000000       0.00000000          1
6
pbc=[F, F, F] list_num_par=6 frozen=false iter=149 energy=-0.05828464 Lattice="15.00000000 0.00000000 0.00000000 0.00000000 15.00000000 0.00000000 0.00000000 0.00000000 15.00000000" energy_frozen_part=0.00000000 Properties=species:S:1:pos:R:3:velocities:R:3:Z:I:1
H         6.10414037       7.13338164       0.92514189         0.00000000       0.00000000       0.00000000          1
H         0.15914103       0.49800392      12.89822275         0.00000000       0.00000000       0.00000000          1
H        12.54946674       2.53584494      14.71860130         0.00000000       0.00000000       0.00000000          1
H         1.26196372      12.34638388       8.18188659         0.00000000       0.00000000       0.00000000          1
H         2.02604913      10.77685384       4.10158407         0.00000000       0.00000000       0.00000000          1
H         2.17531085       3.03608569      14.27322590         0.00000000       0.00000000       0.00000000          1
6
pbc=[F, F, F] list_num_par=6 frozen=false iter=159 energy=-0.06216948 Lattice="15.00000000 0.00000000 0.00000000 0.00000000 15.00000000 0.00000000 0.00000000 0.00000000 15.00000000" energy_frozen_part=0.00000000 Properties=species:S:1:pos:R:3:velocities:R:3:Z:I:1
H         4.70648574       7.42198936      11.29461756         0.00000000       0.00000000       0.00000000          1
H        10.36822068       6.88046646       3.46875137         0.00000000       0.00000000       0.00000000          1
H         4.49796775      13.59637081       2.48032462         0.00000000       0.00000000       0.00000000          1
H        13.06815172      10.67992473       2.78973390         0.00000000       0.00000000       0.00000000          1
H        14.35292582       5.35136120       8.99342565         0.00000000       0.00000000       0.00000000          1
H         8.74645014       7.40818301       0.47600917         0.00000000       0.00000000       0.00000000          1
6
pbc=[F, F, F] list_num_par=6 frozen=false iter=169 energy=-0.06600790 Lattice="15.00000000 0.00000000 0.00000000 0.00000000 15.00000000 0.00000000 0.00000000 0.00000000 15.00000000" energy_frozen_part=0.00000000 Properties=species:S:1:pos:R:3:velocities:R:3:Z:I:1
H        13.07635940       5.19686013       2.34543209         0.00000000       0.00000000       0.00000000          1
H         2.33902151       3.51321557       6.10764712         0.00000000       0.00000000       0.00000000          1
H         5.42197546       2.96598535       4.71218167         0.00000000       0.00000000       0.00000000          1
H        13.24349581       9.24888618       2.88191307         0.00000000       0.00000000       0.00000000          1
H         8.02365507      10.81123261      13.67007208         0.00000000       0.00000000       0.00000000          1
H         7.48500521      12.46267982      11.87892659         0.00000000       0.00000000       0.00000000          1
6
pbc=[F, F, F] list_num_par=6 frozen=false iter=179 energy=-0.07123471 Lattice="15.00000000 0.00000000 0.00000000 0.00000000 15.00000000 0.00000000 0.00000000 0.00000000 15.00000000" energy_frozen_part=0.00000000 Properties=species:S:1:pos:R:3:velocities:R:3:Z:I:1
H         0.10530440       8.95861693       2.22308721         0.00000000       0.00000000       0.00000000          1
H         1.21741219       0.38985277       9.33645459         0.00000000       0.00000000       0.00000000          1
H        13.92546499       5.39376775      12.77376975         0.00000000       0.00000000       0.00000000          1
H         2.37113492      14.73234090       4.52126635         0.00000000       0.00000000       0.00000000          1
H         0.74058546       7.12210577       4.87152828         0.00000000       0.00000000       0.00000000          1
H         3.81781686       3.12742660      12.43202302         0.00000000       0.00000000       0.00000000          1
6
pbc=[F, F, F] list_num_par=6 frozen=false iter=189 energy=-0.07733338 Lattice="15.00000000 0.00000000 0.00000000 0.00000000 15.00000000 0.00000000 0.00000000 0.00000000 15.00000000" energy_frozen_part=0.00000000 Properties=species:S:1:pos:R:3:velocities:R:3:Z:I:1
H         2.93219537       4.74097559       1.34423493         0.00000000       0.00000000       0.00000000          1
H        13.67113151       5.23068805      13.35737233         0.00000000       0.00000000       0.00000000          1
H         7.25819009       2.49317343       1.66341611         0.00000000       0.00000000       0.00000000          1
H        13.78884626       5.64123314       4.27458005         0.00000000       0.00000000       0.00000000          1
H        14.63876161       8.26605568      13.70126785         0.00000000       0.00000000       0.00000000          1
H         1.81634616       3.75404333       9.78156347         0.00000000       0.00000000       0.00000000          1
6
pbc=[F, F, F] list_num_par=6 frozen=false iter=199 energy=-0.08140180 Lattice="15.00000000 0.00000000 0.00000000 0.00000000 15.00000000 0.00000000 0.00000000 0.00000000 15.00000000" energy_frozen_part=0.00000000 Properties=species:S:1:pos:R:3:velocities:R:3:Z:I:1
H         7.60893791       6.04082504       6.09971852         0.00000000       0.00000000       0.00000000          1
H        10.87001912       4.21986178      13.35774153         0.00000000       0.00000000       0.00000000          1
H        14.82424315      14.28231223       3.66454219         0.00000000       0.00000000       0.00000000          1
H         4.03526550      12.35630483       4.10657903         0.00000000       0.00000000       0.00000000          1
H        12.54174836      12.00172050      11.04052905         0.00000000       0.00000000       0.00000000          1
H        12.56504228      13.19360688       1.84851912         0.00000000       0.00000000       0.00000000          1
6
pbc=[F, F, F] list_num_par=6 frozen=false iter=209 energy=-0.08545898 Lattice="15.00000000 0.00000000 0.00000000 0.00000000 15.00000000 0.00000000 0.00000000 0.00000000 15.00000000" energy_frozen_part=0.00000000 Properties=species:S:1:pos:R:3:velocities:R:3:Z:I:1
H         0.79250783      12.48014768       3.83475958         0.00000000       0.00000000       0.00000000          1
H         5.52412870      11.86040313       7.88382995         0.00000000       0.00000000       0.00000000          1
H         9.64337942       2.29021084       0.67350364         0.00000000       0.00000000       0.00000000          1
H        11.66770181       4.60234573       3.28178053         0.00000000       0.00000000       0.00000000          1
H         5.72969787       8.57270061       8.80000032         0.00000000       0.00000000       0.00000000          1
H         1.35454822       6.94026397       8.13251466         0.00000000       0.00000000       0.00000000          1
6
pbc=[F, F, F] list_num_par=6 frozen=false iter=219 energy=-0.09034536 Lattice="15.00000000 0.00000000 0.00000000 0.00000000 15.00000000 0.00000000 0.00000000 0.00000000 15.00000000" energy_frozen_part=0.00000000 Properties=species:S:1:pos:R:3:velocities:R:3:Z:I:1
H         5.21051383       5.18996089       5.12038225         0.00000000       0.00000000       0.00000000          1
H         5.05428633      10.77869788       3.81565213         0.00000000       0.00000000       0.00000000          1
H         4.91839329      13.00140437       5.66051666         0.00000000       0.00000000       0.00000000          1
H         7.23255745       3.75243715       4.93244815         0.00000000       0.00000000       0.00000000          1
H        10.69610189      14.49850826       9.24841528         0.00000000       0.00000000       0.00000000          1
H        12.53971157       3.71926696       9.38443251         0.00000000       0.00000000       0.00000000          1
6
pbc=[F, F, F] list_num_par=6 frozen=false iter=229 energy=-0.09468739 Lattice="15.00000000 0.00000000 0.00000000 0.00000000 15.00000000 0.00000000 0.00000000 0.00000000 15.00000000" energy_frozen_part=0.00000000 Properties=species:S:1:pos:R:3:velocities:R:3:Z:I:1
H         7.39494325       3.08028041      11.17269369         0.00000000       0.00000000       0.00000000          1
H         8.50636179       0.39651159      11.64812533         0.00000000       0.00000000       0.00000000          1
H         3.52706530      12.33945118       1.99789602         0.00000000       0.00000000       0.00000000          1
H         3.28600978      12.76010617      14.88846532         0.00000000       0.00000000       0.00000000          1
H         8.73636473       6.69269386       2.29351698         0.00000000       0.00000000       0.00000000          1
H         5.18373633       0.14696104       2.95641674         0.00000000       0.00000000       0.00000000          1
6
pbc=[F, F, F] list_num_par=6 frozen=false iter=239 energy=-0.09775480 Lattice="15.00000000 0.00000000 0.00000000 0.00000000 15.00000000 0.00000000 0.00000000 0.00000000 15.00000000" energy_frozen_part=0.00000000 Properties=species:S:1:pos:R:3:velocities:R:3:Z:I:1
H         8.45837426      10.16196393       1.66506069         0.00000000       0.00000000       0.00000000          1
H         3.69679880      10.31288515       4.92995865         0.00000000       0.00000000       0.00000000          1
H        13.59888204      11.05505393       0.54087697         0.00000000       0.00000000       0.00000000          1
H         6.46556390       7.67912834      11.06984142         0.00000000       0.00000000       0.00000000          1
H         8.33176256       5.68827418       5.74195735         0.00000000       0.00000000       0.00000000          1
H         5.74537704       4.70867879      11.18408082         0.00000000       0.00000000       0.00000000          1
6
pbc=[F, F, F] list_num_par=6 frozen=false iter=249 energy=-0.10082578 Lattice="15.00000000 0.00000000 0.00000000 0.00000000 15.00000000 0.00000000 0.00000000 0.00000000 15.00000000" energy_frozen_part=0.00000000 Properties=species:S:1:pos:R:3:velocities:R:3:Z:I:1
H        14.26748499      11.81309693      14.54653127         0.00000000       0.00000000       0.00000000          1
H         2.61364388       6.84684199       2.61581030         0.00000000       0.00000000       0.00000000          1
H        14.19543163      14.15001660       1.63627241         0.00000000       0.00000000       0.00000000          1
H        10.50259123      10.28079132       0.58488980         0.00000000       0.00000000       0.00000000          1
H         2.27261154      13.02937795      13.79149520         0.00000000       0.00000000       0.00000000          1
H        14.59000061      14.66910862      14.87316091         0.00000000       0.00000000       0.00000000          1
6
pbc=[F, F, F] list_num_par=6 frozen=false iter=259 energy=-0.10293741 Lattice="15.00000000 0.00000000 0.00000000 0.00000000 15.00000000 0.00000000 0.00000000 0.00000000 15.00000000" energy_frozen_part=0.00000000 Properties=species:S:1:pos:R:3:velocities:R:3:Z:I:1
H         9.05933581       2.50413398       5.51044578         0.00000000       0.00000000       0.00000000          1
H         3.51123560       8.98351264       1.47524799         0.00000000       0.00000000       0.00000000          1
H         6.63021912       1.47125406       6.86913286         0.00000000       0.00000000       0.00000000          1
H        10.81189283       6.66459365       7.00640976         0.00000000       0.00000000       0.00000000          1
H        12.95795445       3.31599781       0.63644964         0.00000000       0.00000000       0.00000000          1
H         0.35464474      13.64719471      10.43190614         0.00000000       0.00000000       0.00000000          1
6
pbc=[F, F, F] list_num_par=6 frozen=false iter=269 energy=-0.10564216 Lattice="15.00000000 0.00000000 0.00000000 0.00000000 15.00000000 0.00000000 0.00000000 0.00000000 15.00000000" energy_frozen_part=0.00000000 Properties=species:S:1:pos:R:3:velocities:R:3:Z:I:1
H         4.80652229       4.43946341       4.40429483         0.00000000       0.00000000       0.00000000          1
H        13.40411028       6.29682786      14.74146149         0.00000000       0.00000000       0.00000000          1
H         4.86950723       0.52037623       2.54452595         0.00000000       0.00000000       0.00000000          1
H        11.95517445       3.53772690       4.20387309         0.00000000       0.00000000       0.00000000          1
H        12.86221853       9.22914560      14.84770390         0.00000000       0.00000000       0.00000000          1
H         5.95826778       1.58485448      11.98702270         0.00000000       0.00000000       0.00000000          1
6
pbc=[F, F, F] list_num_par=6 frozen=false iter=279 energy=-0.10759541 Lattice="15.00000000 0.00000000 0.00000000 0.00000000 15.00000000 0.00000000 0.00000000 0.00000000 15.00000000" energy_frozen_part=0.00000000 Properties=species:S:1:pos:R:3:velocities:R:3:Z:I:1
H         6.32257596      14.70191082      14.01054837         0.00000000       0.00000000       0.00000000          1
H         2.89477523       5.28074713      10.32362606         0.00000000       0.00000000       0.00000000          1
H         9.85630760      13.95138877      12.90818015         0.00000000       0.00000000       0.00000000          1
H        13.56166475      13.37848242       4.97610564         0.00000000       0.00000000       0.00000000          1
H         0.38020827       8.29917971      12.25647803         0.00000000       0.00000000       0.00000000          1
H         0.92942525      11.55119671      12.16711987         0.00000000       0.00000000       0.00000000          1
6
pbc=[F, F, F] list_num_par=6 frozen=false iter=289 energy=-0.11120373 Lattice="15.00000000 0.00000000 0.00000000 0.00000000 15.00000000 0.00000000 0.00000000 0.00000000 15.00000000" energy_frozen_part=0.00000000 Properties=species:S:1:pos:R:3:velocities:R:3:Z:I:1
H         2.96206709       7.41511286       2.36498216         0.00000000       0.00000000       0.00000000          1
H        13.75471783       7.33530146       5.57228254         0.00000000       0.00000000       0.00000000          1
H         4.77773267       3.12760835       2.69178168         0.00000000       0.00000000       0.00000000          1
H         2.65802670       5.63868269       4.12004454         0.00000000       0.00000000       0.00000000          1
H         2.58973006       8.34359021       6.66444943         0.00000000       0.00000000       0.00000000          1
H        14.25692056       8.35453657      13.76232800         0.00000000       0.00000000       0.00000000          1
6
pbc=[F, F, F] list_num_par=6 frozen=false iter=299 energy=-0.11269879 Lattice="15.00000000 0.00000000 0.00000000 0.00000000 15.00000000 0.00000000 0.00000000 0.00000000 15.00000000" energy_frozen_part=0.00000000 Properties=species:S:1:pos:R:3:velocities:R:3:Z:I:1
H        12.59002474      13.72774965      11.97781448         0.00000000       0.00000000       0.00000000          1
H         6.71795742       1.65043806       4.59868183         0.00000000       0.00000000       0.00000000          1
H        12.28941993       4.48406169       6.28477731         0.00000000       0.00000000       0.00000000          1
H        10.75951966       9.02460645      11.76272017         0.00000000       0.00000000       0.00000000          1
H         6.58060497      13.03786395       8.48291213         0.00000000       0.00000000       0.00000000          1
H        11.35986327       8.58057882       8.92194059         0.00000000       0.00000000       0.00000000          1
6
pbc=[F, F, F] list_num_par=6 frozen=false iter=309 energy=-0.11494282 Lattice="15.00000000 0.00000000 0.00000000 0.00000000 15.00000000 0.00000000 0.00000000 0.00000000 15.00000000" energy_frozen_part=0.00000000 Properties=species:S:1:pos:R:3:velocities:R:3:Z:I:1
H        11.28748429       9.05512474      14.61960231         0.00000000       0.00000000       0.00000000          1
H         3.47356668      10.55450646       5.86350852         0.00000000       0.00000000       0.00000000          1