6
pbc=[F, F, F] list_num_par=6 frozen=false iter=9 energy=41.84513502 Lattice="15.00000000 0.00000000 0.00000000 0.00000000 15.00000000 0.00000000 0.00000000 0.00000000 15.00000000" energy_frozen_part=0.00000000 Properties=species:S:1:pos:R:3:velocities:R:3:Z:I:1
H        13.78031872       9.21886404       8.81175410         0.00000000       0.00000000       0.00000000          1
H         4.77553656       2.57973343      13.19429950         0.00000000       0.00000000       0.00000000          1
H         4.13539017       2.31581318      11.66030243         0.00000000       0.00000000       0.00000000          1
H        10.49111048      12.06960817       3.27830945         0.00000000       0.00000000       0.00000000          1
H         2.20191565       1.71630589       3.20624286         0.00000000       0.00000000       0.00000000          1
H         9.68525257       8.13705618       7.37572926         0.00000000       0.00000000       0.00000000          1
6
pbc=[F, F, F] list_num_par=6 frozen=false iter=19 energy=0.93440678 Lattice="15.00000000 0.00000000 0.00000000 0.00000000 15.00000000 0.00000000 0.00000000 0.00000000 15.00000000" energy_frozen_part=0.00000000 Properties=species:S:1:pos:R:3:velocities:R:3:Z:I:1
H        10.59847575       8.83311792      14.12964818         0.00000000       0.00000000       0.00000000          1
H        11.14780530       7.27322742       1.37615462         0.00000000       0.00000000       0.00000000          1
H        12.52506563       9.75909687      13.58215367         0.00000000       0.00000000       0.00000000          1
H         5.30247780       6.23673970       0.52756421         0.00000000       0.00000000       0.00000000          1
H         8.76319368       3.06742108       3.60164147         0.00000000       0.00000000       0.00000000          1
H         3.89977369      14.19207042       7.91915130         0.00000000       0.00000000       0.00000000          1
6
pbc=[F, F, F] list_num_par=6 frozen=false iter=29 energy=-0.00374963 Lattice="15.00000000 0.00000000 0.00000000 0.00000000 15.00000000 0.00000000 0.00000000 0.00000000 15.00000000" energy_frozen_part=0.00000000 Properties=species:S:1:pos:R:3:velocities:R:3:Z:I:1
H        10.75908840       3.39186570       0.42301006         0.00000000       0.00000000       0.00000000          1
H         2.32688550       1.17113578       8.87517390         0.00000000       0.00000000       0.00000000          1
H         8.26400163      14.27883608       4.50989794         0.00000000       0.00000000       0.00000000          1
H        12.30539116       8.87455919      11.10134265         0.00000000       0.00000000       0.00000000          1
H         4.85802814       9.91412981       9.55820026         0.00000000       0.00000000       0.00000000          1
H         4.64695349      10.74875223       1.68899261         0.00000000       0.00000000       0.00000000          1
6
pbc=[F, F, F] list_num_par=6 frozen=false iter=39 energy=-0.00742679 Lattice="15.00000000 0.00000000 0.00000000 0.00000000 15.00000000 0.00000000 0.00000000 0.00000000 15.00000000" energy_frozen_part=0.00000000 Properties=species:S:1:pos:R:3:velocities:R:3:Z:I:1
H         5.96502140      14.06200570       3.31109059         0.00000000       0.00000000       0.00000000          1
H        12.44691402      12.87218483       0.48462593         0.00000000       0.00000000       0.00000000          1
H        14.78666441       2.61077163       5.01549300         0.00000000       0.00000000       0.00000000          1
H         4.14522181       3.58379899      12.73187383         0.00000000       0.00000000       0.00000000          1
H        14.32449803       7.17830750       1.89484832         0.00000000       0.00000000       0.00000000          1
H         0.18380854       2.72986520       8.25875457         0.00000000       0.00000000       0.00000000          1
6
pbc=[F, F, F] list_num_par=6 frozen=false iter=49 energy=-0.01081173 Lattice="15.00000000 0.00000000 0.00000000 0.00000000 15.00000000 0.00000000 0.00000000 0.00000000 15.00000000" energy_frozen_part=0.00000000 Properties=species:S:1:pos:R:3:velocities:R:3:Z:I:1
H         4.26321524       5.81024383       5.48534045         0.00000000       0.00000000       0.00000000          1
H         9.99053305       2.90910917       9.04448947         0.00000000       0.00000000       0.00000000          1
H        14.80155146       2.72684142      12.96854646         0.00000000       0.00000000       0.00000000          1
H        10.00804108       7.88497786      14.33202412         0.00000000       0.00000000       0.00000000          1
H         4.13141807      10.14817092      11.18978891         0.00000000       0.00000000       0.00000000          1
H        14.84015173       1.63496558       7.15329132         0.00000000       0.00000000       0.00000000          1
6
pbc=[F, F, F] list_num_par=6 frozen=false iter=59 energy=-0.01344341 Lattice="15.00000000 0.00000000 0.00000000 0.00000000 15.00000000 0.00000000 0.00000000 0.00000000 15.00000000" energy_frozen_part=0.00000000 Properties=species:S:1:pos:R:3:velocities:R:3:Z:I:1
H        13.39456885       4.10928254      13.35777396         0.00000000       0.00000000       0.00000000          1
H         3.94387525       7.19351255       6.10967131         0.00000000       0.00000000       0.00000000          1
H        14.21234657       0.28161337       3.30381896         0.00000000       0.00000000       0.00000000          1
H        12.66354086       6.28132465       3.55019275         0.00000000       0.00000000       0.00000000          1
H         0.06989774       1.92131746      10.92199991         0.00000000       0.00000000       0.00000000          1
H        11.29322464      10.56184767       3.40164131         0.00000000       0.00000000       0.00000000          1
6
pbc=[F, F, F] list_num_par=6 frozen=false iter=69 energy=-0.01820135 Lattice="15.00000000 0.00000000 0.00000000 0.00000000 15.00000000 0.00000000 0.00000000 0.00000000 15.00000000" energy_frozen_part=0.00000000 Properties=species:S:1:pos:R:3:velocities:R:3:Z:I:1
H         9.57329636       8.14979096      10.85373241         0.00000000       0.00000000       0.00000000          1
H         5.21963490       4.36353094      12.25589264         0.00000000       0.00000000       0.00000000          1
H         1.53827151      12.80821892       5.03141348         0.00000000       0.00000000       0.00000000          1
H        14.76978341       1.36665251      10.41945499         0.00000000       0.00000000       0.00000000          1
H        10.18635082       7.83635332       0.18706666         0.00000000       0.00000000       0.00000000          1
H        12.11611924       8.93909785       7.51509547         0.00000000       0.00000000       0.00000000          1
6
pbc=[F, F, F] list_num_par=6 frozen=false iter=79 energy=-0.02099145 Lattice="15.00000000 0.00000000 0.00000000 0.00000000 15.00000000 0.00000000 0.00000000 0.00000000 15.00000000" energy_frozen_part=0.00000000 Properties=species:S:1:pos:R:3:velocities:R:3:Z:I:1
H         0.47425180      11.82779058       1.16959461         0.00000000       0.00000000       0.00000000          1
H        10.97599209       5.04447493      13.25365136         0.00000000       0.00000000       0.00000000          1
H         7.57255436      10.97016033       2.82513718         0.00000000       0.00000000       0.00000000          1
H        14.56539820      12.42826113      10.03035257         0.00000000       0.00000000       0.00000000          1
H        13.32325980       6.98891313       9.07535937         0.00000000       0.00000000       0.00000000          1
H        13.38788857       9.02188353       4.93090560         0.00000000       0.00000000       0.00000000          1
6
pbc=[F, F, F] list_num_par=6 frozen=false iter=89 energy=-0.02281252 Lattice="15.00000000 0.00000000 0.00000000 0.00000000 15.00000000 0.00000000 0.00000000 0.00000000 15.00000000" energy_frozen_part=0.00000000 Properties=species:S:1:pos:R:3:velocities:R:3:Z:I:1
H        12.31509028       7.81032879      14.74418553         0.00000000       0.00000000       0.00000000          1
H        11.31074083      12.60944083       3.14469162         0.00000000       0.00000000       0.00000000          1
H         7.04124446       9.52756151       8.17839562         0.00000000       0.00000000       0.00000000          1
H        14.96009992       9.69975706       8.00037610         0.00000000       0.00000000       0.00000000          1
H        14.43571254       4.59989457       0.93037492         0.00000000       0.00000000       0.00000000          1
H        12.55391014      13.17931954       8.49292177         0.00000000       0.00000000       0.00000000          1
6
pbc=[F, F, F] list_num_par=6 frozen=false iter=99 energy=-0.02541596 Lattice="15.00000000 0.00000000 0.00000000 0.00000000 15.00000000 0.00000000 0.00000000 0.00000000 15.00000000" energy_frozen_part=0.00000000 Properties=species:S:1:pos:R:3:velocities:R:3:Z:I:1
H         1.89331242      13.62885109       1.50391803         0.00000000       0.00000000       0.00000000          1
H         7.67688321       2.97060941       7.72027090         0.00000000       0.00000000       0.00000000          1
H         3.25899526       8.69112079       0.10726478         0.00000000       0.00000000       0.00000000          1
H         0.63319354       1.41882947       8.63024373         0.00000000       0.00000000       0.00000000          1
H         2.11033202      14.09409369       6.89228631         0.00000000       0.00000000       0.00000000          1
H         6.25451963       8.97968810       3.17009838         0.00000000       0.00000000       0.00000000          1
6
pbc=[F, F, F] list_num_par=6 frozen=false iter=109 energy=-0.02920404 Lattice="15.00000000 0.00000000 0.00000000 0.00000000 15.00000000 0.00000000 0.00000000 0.00000000 15.00000000" energy_frozen_part=0.00000000 Properties=species:S:1:pos:R:3:velocities:R:3:Z:I:1
H         8.70587869       9.60210231      13.33397585         0.00000000       0.00000000       0.00000000          1
H         6.47366364       5.90311200       2.59542991         0.00000000       0.00000000       0.00000000          1
H         0.19561384      10.06586929       7.08290589         0.00000000       0.00000000       0.00000000          1
H         8.61925559      13.81907550      14.49512059         0.00000000       0.00000000       0.00000000          1
H         4.52085049       9.01842521      14.32312341         0.00000000       0.00000000       0.00000000          1
H        14.32312673       9.00995571       3.87918653         0.00000000       0.00000000       0.00000000          1
6
pbc=[F, F, F] list_num_par=6 frozen=false iter=119 energy=-0.03485242 Lattice="15.00000000 0.00000000 0.00000000 0.00000000 15.00000000 0.00000000 0.00000000 0.00000000 15.00000000" energy_frozen_part=0.00000000 Properties=species:S:1:pos:R:3:velocities:R:3:Z:I:1
H        11.11700527       6.20003835       2.63575519         0.00000000       0.00000000       0.00000000          1
H        13.00307923       1.53645681       1.74972420         0.00000000       0.00000000       0.00000000          1
H         9.56199477       5.69305760      11.03198324         0.00000000       0.00000000       0.00000000          1
H        12.96397192      14.19226942      13.92726510         0.00000000       0.00000000       0.00000000          1
H        11.61704500       5.81095849       7.62764421         0.00000000       0.00000000       0.00000000          1
H         1.31649459       5.97465763       1.19259542         0.00000000       0.00000000       0.00000000          1
6
pbc=[F, F, F] list_num_par=6 frozen=false iter=129 energy=-0.03867576 Lattice="15.00000000 0.00000000 0.00000000 0.00000000 15.00000000 0.00000000 0.00000000 0.00000000 15.00000000" energy_frozen_part=0.00000000 Properties=species:S:1:pos:R:3:velocities:R:3:Z:I:1
H         4.39878277      12.00309554       8.10694754         0.00000000       0.00000000       0.00000000          1
H        11.38896505      14.91231360       3.83855951         0.00000000       0.00000000       0.00000000          1
H        11.90194607       6.41978572       9.51741185         0.00000000       0.00000000       0.00000000          1
H        14.54752973       9.30903127       7.31720101         0.00000000       0.00000000       0.00000000          1
H         4.11463287       3.15223976      13.10421093         0.00000000       0.00000000       0.00000000          1
H         0.39255580       3.51793341      14.13650828         0.00000000       0.00000000       0.00000000          1
6
pbc=[F, F, F] list_num_par=6 frozen=false iter=139 energy=-0.04450883 Lattice="15.00000000 0.00000000 0.00000000 0.00000000 15.00000000 0.00000000 0.00000000 0.00000000 15.00000000" energy_frozen_part=0.00000000 Properties=species:S:1:pos:R:3:velocities:R:3:Z:I:1
H        10.11842586       5.31057219      14.68141269         0.00000000       0.00000000       0.00000000          1
H        12.04762795       8.65729193       9.93768427         0.00000000       0.00000000       0.00000000          1
H         2.13344269       3.38210275       2.37586224         0.00000000       0.00000000       0.00000000          1
H         0.87472919      14.62243092      14.89081652         0.00000000       0.00000000       0.00000000          1
H         2.92677525       4.26715181      10.07435652         0.00000000       0.00000000       0.00000000          1
H         1.97191124       1.63648513      12.27229844         0.00000000       0.00000000       0.00000000          1
6
pbc=[F, F, F] list_num_par=6 frozen=false iter=149 energy=-0.04860742 Lattice="15.00000000 0.00000000 0.00000000 0.00000000 15.00000000 0.00000000 0.00000000 0.00000000 15.00000000" energy_frozen_part=0.00000000 Properties=species:S:1:pos:R:3:velocities:R:3:Z:I:1
H        13.43107372      14.70479357       1.62697787         0.00000000       0.00000000       0.00000000          1
H         9.14398650      13.45267988       3.83829884         0.00000000       0.00000000       0.00000000          1
H         6.06394244       3.62603614       0.12590499         0.00000000       0.00000000       0.00000000          1
H         6.40706696       4.23982826       9.84921173         0.00000000       0.00000000       0.00000000          1
H         9.88525025      10.38367034       1.97171301         0.00000000       0.00000000       0.00000000          1
H         5.46678469      13.11498036       8.16210514         0.00000000       0.00000000       0.00000000          1
6
pbc=[F, F, F] list_num_par=6 frozen=false iter=159 energy=-0.05272977 Lattice="15.00000000 0.00000000 0.00000000 0.00000000 15.00000000 0.00000000 0.00000000 0.00000000 15.00000000" energy_frozen_part=0.00000000 Properties=species:S:1:pos:R:3:velocities:R:3:Z:I:1
H         4.67165573       5.62644977       7.82020445         0.00000000       0.00000000       0.00000000          1
H         0.03920068      11.88498720       2.73526317         0.00000000       0.00000000       0.00000000          1
H         1.01267450      11.75991390       6.15335413         0.00000000       0.00000000       0.00000000          1
H        13.21870111       1.33155478      14.38262464         0.00000000       0.00000000       0.00000000          1
H        11.52328553       2.71852115      10.29427424         0.00000000       0.00000000       0.00000000          1
H        12.80273056      13.64637950       9.36665391         0.00000000       0.00000000       0.00000000          1
6
pbc=[F, F, F] list_num_par=6 frozen=false iter=169 energy=-0.06077544 Lattice="15.00000000 0.00000000 0.00000000 0.00000000 15.00000000 0.00000000 0.00000000 0.00000000 15.00000000" energy_frozen_part=0.00000000 Properties=species:S:1:pos:R:3:velocities:R:3:Z:I:1
H         9.39436276      10.04086266       5.25051676         0.00000000       0.00000000       0.00000000          1
H        14.69231644       5.41427847       4.83013563         0.00000000       0.00000000       0.00000000          1
H         4.83075687       8.10986824       1.59073177         0.00000000       0.00000000       0.00000000          1
H         6.25406211      12.61464500       4.03082500         0.00000000       0.00000000       0.00000000          1
H        14.05387017       9.09996553       3.51691281         0.00000000       0.00000000       0.00000000          1
H         5.09493389       8.45928307       7.77836321         0.00000000       0.00000000       0.00000000          1
6
pbc=[F, F, F] list_num_par=6 frozen=false iter=179 energy=-0.06498324 Lattice="15.00000000 0.00000000 0.00000000 0.00000000 15.00000000 0.00000000 0.00000000 0.00000000 15.00000000" energy_frozen_part=0.00000000 Properties=species:S:1:pos:R:3:velocities:R:3:Z:I:1
H        12.71643254       4.44448067       7.19271817         0.00000000       0.00000000       0.00000000          1
H         6.16820292       2.10843068      12.92304054         0.00000000       0.00000000       0.00000000          1
H        10.09473050       8.19048576       8.22665319         0.00000000       0.00000000       0.00000000          1
H         9.68959592      13.62572669       4.88720909         0.00000000       0.00000000       0.00000000          1
H         8.24985948       7.12740960       6.83091812         0.00000000       0.00000000       0.00000000          1
H         7.84024613       8.35624388      12.44917363         0.00000000       0.00000000       0.00000000          1
6
pbc=[F, F, F] list_num_par=6 frozen=false iter=189 energy=-0.07007642 Lattice="15.00000000 0.00000000 0.00000000 0.00000000 15.00000000 0.00000000 0.00000000 0.00000000 15.00000000" energy_frozen_part=0.00000000 Properties=species:S:1:pos:R:3:velocities:R:3:Z:I:1
H         4.95249697       9.15181159      12.28805228         0.00000000       0.00000000       0.00000000          1
H         7.19882244       5.69392903       1.73827974         0.00000000       0.00000000       0.00000000          1
H         0.21848453      11.38185115       7.04451746         0.00000000       0.00000000       0.00000000          1
H         7.30614699      14.69393255      13.30567623         0.00000000       0.00000000       0.00000000          1
H         4.02831325       8.61109028      14.65931683         0.00000000       0.00000000       0.00000000          1
H        14.27623691      10.91956621       4.35896770         0.00000000       0.00000000       0.00000000          1
6
pbc=[F, F, F] list_num_par=6 frozen=false iter=199 energy=-0.07510025 Lattice="15.00000000 0.00000000 0.00000000 0.00000000 15.00000000 0.00000000 0.00000000 0.00000000 15.00000000" energy_frozen_part=0.00000000 Properties=species:S:1:pos:R:3:velocities:R:3:Z:I:1
H        14.30926129       5.63410351       5.79503443         0.00000000       0.00000000       0.00000000          1
H         1.27513934      14.32112211       0.95899002         0.00000000       0.00000000       0.00000000          1
H        14.75434950      13.95083820       4.63162414         0.00000000       0.00000000       0.00000000          1
H        12.00534563       5.49943725       3.58546368         0.00000000       0.00000000       0.00000000          1
H         8.39896584       9.02314678       7.98796148         0.00000000       0.00000000       0.00000000          1
H        11.29473788      14.36188485      10.12291417         0.00000000       0.00000000       0.00000000          1
6
pbc=[F, F, F] list_num_par=6 frozen=false iter=209 energy=-0.07910627 Lattice="15.00000000 0.00000000 0.00000000 0.00000000 15.00000000 0.00000000 0.00000000 0.00000000 15.00000000" energy_frozen_part=0.00000000 Properties=species:S:1:pos:R:3:velocities:R:3:Z:I:1
H        10.43228532      11.20179620      12.66247561         0.00000000       0.00000000       0.00000000          1
H         1.24459940       8.20932778       9.53193655         0.00000000       0.00000000       0.00000000          1
H        14.68878932       3.66699107      14.64419340         0.00000000       0.00000000       0.00000000          1
H         3.85603035       8.07076539       9.32663112         0.00000000       0.00000000       0.00000000          1
H        13.99536486      14.89808824       1.17234945         0.00000000       0.00000000       0.00000000          1
H         6.71062482       6.23392753      14.36884881         0.00000000       0.00000000       0.00000000          1
6
pbc=[F, F, F] list_num_par=6 frozen=false iter=219 energy=-0.08342996 Lattice="15.00000000 0.00000000 0.00000000 0.00000000 15.00000000 0.00000000 0.00000000 0.00000000 15.00000000" energy_frozen_part=0.00000000 Properties=species:S:1:pos:R:3:velocities:R:3:Z:I:1
H         4.89560242       9.16373381      12.26525378         0.00000000       0.00000000       0.00000000          1
H         7.17584952       5.66135347       1.76399380         0.00000000       0.00000000       0.00000000          1
H         0.26845049      11.44822990       7.06042253         0.00000000       0.00000000       0.00000000          1
H         7.32703493      14.73216351      13.32395132         0.00000000       0.00000000       0.00000000          1
H         4.00483423       8.56766941      14.67824293         0.00000000       0.00000000       0.00000000          1
H        14.27839129      10.89369974       4.42687233         0.00000000       0.00000000       0.00000000          1
6
pbc=[F, F, F] list_num_par=6 frozen=false iter=229 energy=-0.08734720 Lattice="15.00000000 0.00000000 0.00000000 0.00000000 15.00000000 0.00000000 0.00000000 0.00000000 15.00000000" energy_frozen_part=0.00000000 Properties=species:S:1:pos:R:3:velocities:R:3:Z:I:1
H         0.05207511       8.21370015       3.65144287         0.00000000       0.00000000       0.00000000          1
H         3.77483916       5.39113546       0.65115149         0.00000000       0.00000000       0.00000000          1
H         7.28457716       6.36215401       9.31225861         0.00000000       0.00000000       0.00000000          1
H         6.86346232       9.76431165       5.14422702         0.00000000       0.00000000       0.00000000          1
H         3.93176181      11.79341193       2.14268930         0.00000000       0.00000000       0.00000000          1
H         6.94085420      13.23036703       4.34256624         0.00000000       0.00000000       0.00000000          1
6
pbc=[F, F, F] list_num_par=6 frozen=false iter=239 energy=-0.09177562 Lattice="15.00000000 0.00000000 0.00000000 0.00000000 15.00000000 0.00000000 0.00000000 0.00000000 15.00000000" energy_frozen_part=0.00000000 Properties=species:S:1:pos:R:3:velocities:R:3:Z:I:1
H         2.11215649      13.81400153       1.19363636         0.00000000       0.00000000       0.00000000          1
H         5.03520252       6.74636206       7.84691466         0.00000000       0.00000000       0.00000000          1
H         4.91270846      11.51163290       9.63951830         0.00000000       0.00000000       0.00000000          1
H        14.62091799       6.36293445      13.75477004         0.00000000       0.00000000       0.00000000          1
H         7.06882827       4.56190664       5.31386559         0.00000000       0.00000000       0.00000000          1
H         2.15511597       5.15105137       8.40955280         0.00000000       0.00000000       0.00000000          1
6
pbc=[F, F, F] list_num_par=6 frozen=false iter=249 energy=-0.09658611 Lattice="15.00000000 0.00000000 0.00000000 0.00000000 15.00000000 0.00000000 0.00000000 0.00000000 15.00000000" energy_frozen_part=0.00000000 Properties=species:S:1:pos:R:3:velocities:R:3:Z:I:1
H        10.47492990       1.45152331       4.52061168         0.00000000       0.00000000       0.00000000          1
H         2.60490806       4.89655014       4.42897379         0.00000000       0.00000000       0.00000000          1
H        14.54137607       8.27720224      14.62133408         0.00000000       0.00000000       0.00000000          1
H         9.92480715       4.10675850       5.76427845         0.00000000       0.00000000       0.00000000          1
H         0.88272138       9.49266681      14.61348335         0.00000000       0.00000000       0.00000000          1
H         6.17928482       0.67703911       8.50986844         0.00000000       0.00000000       0.00000000          1
6
pbc=[F, F, F] list_num_par=6 frozen=false iter=259 energy=-0.09815365 Lattice="15.00000000 0.00000000 0.00000000 0.00000000 15.00000000 0.00000000 0.00000000 0.00000000 15.00000000" energy_frozen_part=0.00000000 Properties=species:S:1:pos:R:3:velocities:R:3:Z:I:1
H         7.59488474      10.07422712       9.22867163         0.00000000       0.00000000       0.00000000          1
H         9.20017153       5.67474153       0.34942371         0.00000000       0.00000000       0.00000000          1
H        14.29021926       4.64007574       9.24366876         0.00000000       0.00000000       0.00000000          1
H         8.95540939      12.60912430       7.79401669         0.00000000       0.00000000       0.00000000          1
H         5.72197701      14.84117103       8.82057265         0.00000000       0.00000000       0.00000000          1
H        13.79813066      12.50162981      11.03800000         0.00000000       0.00000000       0.00000000          1
6
pbc=[F, F, F] list_num_par=6 frozen=false iter=269 energy=-0.10237316 Lattice="15.00000000 0.00000000 0.00000000 0.00000000 15.00000000 0.00000000 0.00000000 0.00000000 15.00000000" energy_frozen_part=0.00000000 Properties=species:S:1:pos:R:3:velocities:R:3:Z:I:1
H        11.83750094       9.72184697       5.04720629         0.00000000       0.00000000       0.00000000          1
H         4.83694186      13.79530308      14.84676197         0.00000000       0.00000000       0.00000000          1
H         5.74678283      13.22243641       8.67345151         0.00000000       0.00000000       0.00000000          1
H         8.72356184      14.00866383       6.57219937         0.00000000       0.00000000       0.00000000          1
H         1.63238403       3.35703105      13.25523065         0.00000000       0.00000000       0.00000000          1
H        14.52915965       9.00818491       3.33571018         0.00000000       0.00000000       0.00000000          1
6
pbc=[F, F, F] list_num_par=6 frozen=false iter=279 energy=-0.10501668 Lattice="15.00000000 0.00000000 0.00000000 0.00000000 15.00000000 0.00000000 0.00000000 0.00000000 15.00000000" energy_frozen_part=0.00000000 Properties=species:S:1:pos:R:3:velocities:R:3:Z:I:1
H         0.41394499      13.89625675       0.90048514         0.00000000       0.00000000       0.00000000          1
H         5.57052397       6.13703834       5.92216008         0.00000000       0.00000000       0.00000000          1
H         6.45812471      13.33778960       6.38328655         0.00000000       0.00000000       0.00000000          1
H        14.73830882      14.99449830      12.10071435         0.00000000       0.00000000       0.00000000          1
H         6.84144062       3.75151917       5.02840573         0.00000000       0.00000000       0.00000000          1
H         1.07391864       2.87247427       4.56499902         0.00000000       0.00000000       0.00000000          1
6
pbc=[F, F, F] list_num_par=6 frozen=false iter=289 energy=-0.10733464 Lattice="15.00000000 0.00000000 0.00000000 0.00000000 15.00000000 0.00000000 0.00000000 0.00000000 15.00000000" energy_frozen_part=0.00000000 Properties=species:S:1:pos:R:3:velocities:R:3:Z:I:1
H         4.54459647       9.89412633       0.40562341         0.00000000       0.00000000       0.00000000          1
H         3.35128965      14.02438828       5.09327955         0.00000000       0.00000000       0.00000000          1
H         0.31733408      12.20018974       8.05911022         0.00000000       0.00000000       0.00000000          1
H         9.96769993       4.00615970      13.29119216         0.00000000       0.00000000       0.00000000          1
H         8.51560392       2.94928075      11.00356740         0.00000000       0.00000000       0.00000000          1
H        12.39602680       2.07650709       0.74924462         0.00000000       0.00000000       0.00000000          1
6
pbc=[F, F, F] list_num_par=6 frozen=false iter=299 energy=-0.10936116 Lattice="15.00000000 0.00000000 0.00000000 0.00000000 15.00000000 0.00000000 0.00000000 0.00000000 15.00000000" energy_frozen_part=0.00000000 Properties=species:S:1:pos:R:3:velocities:R:3:Z:I:1
H        12.46251762      13.07043652       4.22722376         0.00000000       0.00000000       0.00000000          1
H         9.54993127       6.17375281      10.12150212         0.00000000       0.00000000       0.00000000          1
H         5.44478124      10.31717462       7.45148374         0.00000000       0.00000000       0.00000000          1
H        10.70685114       4.92060494      13.02493975         0.00000000       0.00000000       0.00000000          1
H         7.66349929       2.89167255      13.10922277         0.00000000       0.00000000       0.00000000          1
H         4.73381790       6.45026644       4.65496448         0.00000000       0.00000000       0.00000000          1
6
pbc=[F, F, F] list_num_par=6 frozen=false iter=309 energy=-0.11261940 Lattice="15.00000000 0.00000000 0.00000000 0.00000000 15.00000000 0.00000000 0.00000000 0.00000000 15.00000000" energy_frozen_part=0.00000000 Properties=species:S:1:pos:R:3:velocities:R:3:Z:I:1
H         8.18828585      13.13568431      14.57935155         0.00000000       0.00000000       0.00000000          1
H         6.56217133       1.23342902       4.63156539         0.00000000       0.00000000       0.00000000          1