6
pbc=[F, F, F] list_num_par=6 frozen=false iter=20000 energy=-1.26974174 Lattice="15.00000000 0.00000000 0.00000000 0.00000000 15.00000000 0.00000000 0.00000000 0.00000000 15.00000000" energy_frozen_part=0.00000000 Properties=species:S:1:pos:R:3:velocities:R:3:Z:I:1
H         2.62710289       9.06364315       4.34950954         0.00000000       0.00000000       0.00000000          1
H         2.19577950      11.58415403       5.47434632         0.00000000       0.00000000       0.00000000          1
H         5.28559858       9.74910772       3.83295748         0.00000000       0.00000000       0.00000000          1
H         3.21597616      11.36714814       2.88275388         0.00000000       0.00000000       0.00000000          1
H         4.85428071      12.26961942       4.95780135         0.00000000       0.00000000       0.00000000          1
H         4.26539726       9.96611261       6.42455547         0.00000000       0.00000000       0.00000000          1
6
pbc=[F, F, F] list_num_par=6 frozen=false iter=20000 energy=-1.26974174 Lattice="15.00000000 0.00000000 0.00000000 0.00000000 15.00000000 0.00000000 0.00000000 0.00000000 15.00000000" energy_frozen_part=0.00000000 Properties=species:S:1:pos:R:3:velocities:R:3:Z:I:1
H         5.42544871       9.33223283      12.79188165         0.00000000       0.00000000       0.00000000          1
H         6.52582385       9.34748245      10.22415547         0.00000000       0.00000000       0.00000000          1
H         8.09872480      10.05415111      12.42208566         0.00000000       0.00000000       0.00000000          1
H         6.21715698      11.98768967      13.14692165         0.00000000       0.00000000       0.00000000          1
H         4.64425257      11.28102287      10.94899241         0.00000000       0.00000000       0.00000000          1
H         7.31752569      12.00293271      10.57919087         0.00000000       0.00000000       0.00000000          1
6
pbc=[F, F, F] list_num_par=6 frozen=false iter=20000 energy=-1.26974174 Lattice="15.00000000 0.00000000 0.00000000 0.00000000 15.00000000 0.00000000 0.00000000 0.00000000 15.00000000" energy_frozen_part=0.00000000 Properties=species:S:1:pos:R:3:velocities:R:3:Z:I:1
H         5.42542978       9.33224878      12.79186543         0.00000000       0.00000000       0.00000000          1
H         6.52579546       9.34747215      10.22413934         0.00000000       0.00000000       0.00000000          1
H         8.09869968      10.05417558      12.42205117         0.00000000       0.00000000       0.00000000          1
H         6.21712170      11.98771462      13.14687221         0.00000000       0.00000000       0.00000000          1
H         4.64421629      11.28100771      10.94895613         0.00000000       0.00000000       0.00000000          1
H         7.31748242      12.00293408      10.57913723         0.00000000       0.00000000       0.00000000          1
6
pbc=[F, F, F] list_num_par=6 frozen=false iter=20000 energy=-1.26974174 Lattice="15.00000000 0.00000000 0.00000000 0.00000000 15.00000000 0.00000000 0.00000000 0.00000000 15.00000000" energy_frozen_part=0.00000000 Properties=species:S:1:pos:R:3:velocities:R:3:Z:I:1
H         5.42539593       9.33223973      12.79176025         0.00000000       0.00000000       0.00000000          1
H         6.52579474       9.34750367      10.22404131         0.00000000       0.00000000       0.00000000          1
H         8.09867601      10.05413246      12.42199980         0.00000000       0.00000000       0.00000000          1
H         6.21710930      11.98768216      13.14684561         0.00000000       0.00000000       0.00000000          1
H         4.64423888      11.28105961      10.94887906         0.00000000       0.00000000       0.00000000          1
H         7.31751988      12.00295001      10.57912960         0.00000000       0.00000000       0.00000000          1
6
pbc=[F, F, F] list_num_par=6 frozen=false iter=20000 energy=-1.26974174 Lattice="15.00000000 0.00000000 0.00000000 0.00000000 15.00000000 0.00000000 0.00000000 0.00000000 15.00000000" energy_frozen_part=0.00000000 Properties=species:S:1:pos:R:3:velocities:R:3:Z:I:1
H         2.62710401       9.06375975       4.34954773         0.00000000       0.00000000       0.00000000          1
H         2.19576992      11.58431354       5.47428315         0.00000000       0.00000000       0.00000000          1
H         5.28556311       9.74924849       3.83286200         0.00000000       0.00000000       0.00000000          1
H         3.21588012      11.36721049       2.88265729         0.00000000       0.00000000       0.00000000          1
H         4.85423078      12.26980524       4.95759976         0.00000000       0.00000000       0.00000000          1
H         4.26545866       9.96636357       6.42449550         0.00000000       0.00000000       0.00000000          1
6
pbc=[F, F, F] list_num_par=6 frozen=false iter=20000 energy=-1.26974174 Lattice="15.00000000 0.00000000 0.00000000 0.00000000 15.00000000 0.00000000 0.00000000 0.00000000 15.00000000" energy_frozen_part=0.00000000 Properties=species:S:1:pos:R:3:velocities:R:3:Z:I:1
H         2.62706934       9.06372867       4.34973990         0.00000000       0.00000000       0.00000000          1
H         2.19586643      11.58430574       5.47446492         0.00000000       0.00000000       0.00000000          1
H         5.28555864       9.74909320       3.83300915         0.00000000       0.00000000       0.00000000          1
H         3.21592907      11.36713574       2.88282457         0.00000000       0.00000000       0.00000000          1
H         4.85435162      12.26967849       4.95773200         0.00000000       0.00000000       0.00000000          1
H         4.26550278       9.96626330       6.42464909         0.00000000       0.00000000       0.00000000          1
6
pbc=[F, F, F] list_num_par=6 frozen=false iter=20000 energy=-1.26974174 Lattice="15.00000000 0.00000000 0.00000000 0.00000000 15.00000000 0.00000000 0.00000000 0.00000000 15.00000000" energy_frozen_part=0.00000000 Properties=species:S:1:pos:R:3:velocities:R:3:Z:I:1
H         5.42538709       9.33224085      12.79175190         0.00000000       0.00000000       0.00000000          1
H         6.52579993       9.34750545      10.22403630         0.00000000       0.00000000       0.00000000          1
H         8.09867215      10.05411772      12.42199659         0.00000000       0.00000000       0.00000000          1
H         6.21712100      11.98767968      13.14684222         0.00000000       0.00000000       0.00000000          1
H         4.64424183      11.28106127      10.94887978         0.00000000       0.00000000       0.00000000          1
H         7.31751939      12.00294664      10.57912714         0.00000000       0.00000000       0.00000000          1
6
pbc=[F, F, F] list_num_par=6 frozen=false iter=20000 energy=-1.26974174 Lattice="15.00000000 0.00000000 0.00000000 0.00000000 15.00000000 0.00000000 0.00000000 0.00000000 15.00000000" energy_frozen_part=0.00000000 Properties=species:S:1:pos:R:3:velocities:R:3:Z:I:1
H         5.42440790       9.33061392      12.79116829         0.00000000       0.00000000       0.00000000          1
H         6.52484448       9.34658653      10.22347169         0.00000000       0.00000000       0.00000000          1
H         8.09763377      10.05281866      12.42161738         0.00000000       0.00000000       0.00000000          1
H         6.21590145      11.98603637      13.14689755         0.00000000       0.00000000       0.00000000          1
H         4.64310955      11.27980721      10.94874491         0.00000000       0.00000000       0.00000000          1
H         7.31633564      12.00200528      10.57920147         0.00000000       0.00000000       0.00000000          1
6
pbc=[F, F, F] list_num_par=6 frozen=false iter=20000 energy=-1.26974174 Lattice="15.00000000 0.00000000 0.00000000 0.00000000 15.00000000 0.00000000 0.00000000 0.00000000 15.00000000" energy_frozen_part=0.00000000 Properties=species:S:1:pos:R:3:velocities:R:3:Z:I:1
H         2.62707414       9.06361015       4.34959282         0.00000000       0.00000000       0.00000000          1
H         2.19575223      11.58416612       5.47434470         0.00000000       0.00000000       0.00000000          1
H         5.28555565       9.74907618       3.83295535         0.00000000       0.00000000       0.00000000          1
H         3.21589859      11.36706176       2.88272865         0.00000000       0.00000000       0.00000000          1
H         4.85423457      12.26962405       4.95770332         0.00000000       0.00000000       0.00000000          1
H         4.26540781       9.96618145       6.42457075         0.00000000       0.00000000       0.00000000          1
6
pbc=[F, F, F] list_num_par=6 frozen=false iter=20000 energy=-1.26974174 Lattice="15.00000000 0.00000000 0.00000000 0.00000000 15.00000000 0.00000000 0.00000000 0.00000000 15.00000000" energy_frozen_part=0.00000000 Properties=species:S:1:pos:R:3:velocities:R:3:Z:I:1
H         2.62707476       9.06368747       4.34953309         0.00000000       0.00000000       0.00000000          1
H         2.19578852      11.58421638       5.47433978         0.00000000       0.00000000       0.00000000          1
H         5.28558196       9.74910601       3.83296816         0.00000000       0.00000000       0.00000000          1
H         3.21598796      11.36716099       2.88274317         0.00000000       0.00000000       0.00000000          1
H         4.85429414      12.26963507       4.95777601         0.00000000       0.00000000       0.00000000          1
H         4.26539363       9.96615980       6.42456753         0.00000000       0.00000000       0.00000000          1
6
pbc=[F, F, F] list_num_par=6 frozen=false iter=20000 energy=-1.26974174 Lattice="15.00000000 0.00000000 0.00000000 0.00000000 15.00000000 0.00000000 0.00000000 0.00000000 15.00000000" energy_frozen_part=0.00000000 Properties=species:S:1:pos:R:3:velocities:R:3:Z:I:1
H         2.62711200       9.06369910       4.34971355         0.00000000       0.00000000       0.00000000          1
H         2.19586264      11.58425365       5.47447662         0.00000000       0.00000000       0.00000000          1
H         5.28558683       9.74912883       3.83300204         0.00000000       0.00000000       0.00000000          1
H         3.21592278      11.36714252       2.88283310         0.00000000       0.00000000       0.00000000          1
H         4.85433228      12.26968642       4.95776055         0.00000000       0.00000000       0.00000000          1
H         4.26551821       9.96624479       6.42463961         0.00000000       0.00000000       0.00000000          1
6
pbc=[F, F, F] list_num_par=6 frozen=false iter=20000 energy=-1.26974174 Lattice="15.00000000 0.00000000 0.00000000 0.00000000 15.00000000 0.00000000 0.00000000 0.00000000 15.00000000" energy_frozen_part=0.00000000 Properties=species:S:1:pos:R:3:velocities:R:3:Z:I:1
H         2.62708395       9.06362417       4.34958412         0.00000000       0.00000000       0.00000000          1
H         2.19573133      11.58416368       5.47435223         0.00000000       0.00000000       0.00000000          1
H         5.28555799       9.74911222       3.83297699         0.00000000       0.00000000       0.00000000          1
H         3.21589616      11.36709652       2.88274481         0.00000000       0.00000000       0.00000000          1
H         4.85421226      12.26964833       4.95774532         0.00000000       0.00000000       0.00000000          1
H         4.26538788       9.96618600       6.42458790         0.00000000       0.00000000       0.00000000          1
6
pbc=[F, F, F] list_num_par=6 frozen=false iter=20000 energy=-1.26974174 Lattice="15.00000000 0.00000000 0.00000000 0.00000000 15.00000000 0.00000000 0.00000000 0.00000000 15.00000000" energy_frozen_part=0.00000000 Properties=species:S:1:pos:R:3:velocities:R:3:Z:I:1
H         5.42540454       9.33225787      12.79182397         0.00000000       0.00000000       0.00000000          1
H         6.52582534       9.34744537      10.22411762         0.00000000       0.00000000       0.00000000          1
H         8.09867135      10.05419436      12.42206034         0.00000000       0.00000000       0.00000000          1
H         6.21706140      11.98773190      13.14681135         0.00000000       0.00000000       0.00000000          1
H         4.64421695      11.28098976      10.94887032         0.00000000       0.00000000       0.00000000          1
H         7.31749082      12.00292383      10.57910907         0.00000000       0.00000000       0.00000000          1
6
pbc=[F, F, F] list_num_par=6 frozen=false iter=20000 energy=-1.26974174 Lattice="15.00000000 0.00000000 0.00000000 0.00000000 15.00000000 0.00000000 0.00000000 0.00000000 15.00000000" energy_frozen_part=0.00000000 Properties=species:S:1:pos:R:3:velocities:R:3:Z:I:1
H         2.62714385       9.06362121       4.34954990         0.00000000       0.00000000       0.00000000          1
H         2.19578905      11.58412467       5.47439929         0.00000000       0.00000000       0.00000000          1
H         5.28560779       9.74914201       3.83293434         0.00000000       0.00000000       0.00000000          1
H         3.21592421      11.36714354       2.88277794         0.00000000       0.00000000       0.00000000          1
H         4.85426005      12.26964248       4.95778668         0.00000000       0.00000000       0.00000000          1
H         4.26546431       9.96612862       6.42455783         0.00000000       0.00000000       0.00000000          1
6
pbc=[F, F, F] list_num_par=6 frozen=false iter=20000 energy=-1.26974174 Lattice="15.00000000 0.00000000 0.00000000 0.00000000 15.00000000 0.00000000 0.00000000 0.00000000 15.00000000" energy_frozen_part=0.00000000 Properties=species:S:1:pos:R:3:velocities:R:3:Z:I:1
H         2.62706614       9.06374946       4.34956784         0.00000000       0.00000000       0.00000000          1
H         2.19578413      11.58432070       5.47429590         0.00000000       0.00000000       0.00000000          1
H         5.28552742       9.74920860       3.83282695         0.00000000       0.00000000       0.00000000          1
H         3.21583304      11.36718380       2.88265372         0.00000000       0.00000000       0.00000000          1
H         4.85424946      12.26977868       4.95755579         0.00000000       0.00000000       0.00000000          1
H         4.26547057       9.96635308       6.42447079         0.00000000       0.00000000       0.00000000          1
6
pbc=[F, F, F] list_num_par=6 frozen=false iter=20000 energy=-1.26974174 Lattice="15.00000000 0.00000000 0.00000000 0.00000000 15.00000000 0.00000000 0.00000000 0.00000000 15.00000000" energy_frozen_part=0.00000000 Properties=species:S:1:pos:R:3:velocities:R:3:Z:I:1
H         2.62710737       9.06364034       4.34950564         0.00000000       0.00000000       0.00000000          1
H         2.19577710      11.58414441       5.47434879         0.00000000       0.00000000       0.00000000          1
H         5.28560253       9.74910841       3.83295034         0.00000000       0.00000000       0.00000000          1
H         3.21598429      11.36714479       2.88274778         0.00000000       0.00000000       0.00000000          1
H         4.85427326      12.26961386       4.95780108         0.00000000       0.00000000       0.00000000          1
H         4.26540001       9.96610453       6.42455054         0.00000000       0.00000000       0.00000000          1
6
pbc=[F, F, F] list_num_par=6 frozen=false iter=20000 energy=-1.26974174 Lattice="15.00000000 0.00000000 0.00000000 0.00000000 15.00000000 0.00000000 0.00000000 0.00000000 15.00000000" energy_frozen_part=0.00000000 Properties=species:S:1:pos:R:3:velocities:R:3:Z:I:1
H         2.62707243       9.06374761       4.34968425         0.00000000       0.00000000       0.00000000          1
H         2.19588481      11.58430520       5.47447900         0.00000000       0.00000000       0.00000000          1
H         5.28555632       9.74911588       3.83296284         0.00000000       0.00000000       0.00000000          1
H         3.21593494      11.36719615       2.88283421         0.00000000       0.00000000       0.00000000          1
H         4.85437277      12.26967318       4.95776671         0.00000000       0.00000000       0.00000000          1
H         4.26550629       9.96622955       6.42461528         0.00000000       0.00000000       0.00000000          1
6
pbc=[F, F, F] list_num_par=6 frozen=false iter=20000 energy=-1.26974174 Lattice="15.00000000 0.00000000 0.00000000 0.00000000 15.00000000 0.00000000 0.00000000 0.00000000 15.00000000" energy_frozen_part=0.00000000 Properties=species:S:1:pos:R:3:velocities:R:3:Z:I:1
H         2.62706518       9.06375663       4.34958205         0.00000000       0.00000000       0.00000000          1
H         2.19577447      11.58432740       5.47429997         0.00000000       0.00000000       0.00000000          1
H         5.28552405       9.74921049       3.83284140         0.00000000       0.00000000       0.00000000          1
H         3.21583567      11.36717921       2.88265323         0.00000000       0.00000000       0.00000000          1
H         4.85424078      12.26978488       4.95755773         0.00000000       0.00000000       0.00000000          1
H         4.26547230       9.96635913       6.42448300         0.00000000       0.00000000       0.00000000          1
6
pbc=[F, F, F] list_num_par=6 frozen=false iter=20000 energy=-1.26974174 Lattice="15.00000000 0.00000000 0.00000000 0.00000000 15.00000000 0.00000000 0.00000000 0.00000000 15.00000000" energy_frozen_part=0.00000000 Properties=species:S:1:pos:R:3:velocities:R:3:Z:I:1
H         2.62707835       9.06369061       4.34952808         0.00000000       0.00000000       0.00000000          1
H         2.19579407      11.58421887       5.47434304         0.00000000       0.00000000       0.00000000          1
H         5.28558136       9.74911000       3.83295794         0.00000000       0.00000000       0.00000000          1
H         3.21597818      11.36716878       2.88273977         0.00000000       0.00000000       0.00000000          1
H         4.85429441      12.26964046       4.95777554         0.00000000       0.00000000       0.00000000          1
H         4.26539610       9.96615415       6.42455209         0.00000000       0.00000000       0.00000000          1
6
pbc=[F, F, F] list_num_par=6 frozen=false iter=20000 energy=-1.26974174 Lattice="15.00000000 0.00000000 0.00000000 0.00000000 15.00000000 0.00000000 0.00000000 0.00000000 15.00000000" energy_frozen_part=0.00000000 Properties=species:S:1:pos:R:3:velocities:R:3:Z:I:1
H         5.42441980       9.33061110      12.79115855         0.00000000       0.00000000       0.00000000          1
H         6.52486304       9.34658441      10.22346162         0.00000000       0.00000000       0.00000000          1
H         8.09764241      10.05281567      12.42161324         0.00000000       0.00000000       0.00000000          1
H         6.21591292      11.98603814      13.14688386         0.00000000       0.00000000       0.00000000          1
H         4.64311955      11.27980271      10.94873960         0.00000000       0.00000000       0.00000000          1
H         7.31634681      12.00200639      10.57918877         0.00000000       0.00000000       0.00000000          1
6
pbc=[F, F, F] list_num_par=6 frozen=false iter=20000 energy=-1.26974174 Lattice="15.00000000 0.00000000 0.00000000 0.00000000 15.00000000 0.00000000 0.00000000 0.00000000 15.00000000" energy_frozen_part=0.00000000 Properties=species:S:1:pos:R:3:velocities:R:3:Z:I:1
H         2.62714361       9.06363286       4.34954830         0.00000000       0.00000000       0.00000000          1
H         2.19580036      11.58413531       5.47439746         0.00000000       0.00000000       0.00000000          1
H         5.28561205       9.74915265       3.83291410         0.00000000       0.00000000       0.00000000          1
H         3.21592213      11.36714443       2.88277183         0.00000000       0.00000000       0.00000000          1
H         4.85426624      12.26965778       4.95776441         0.00000000       0.00000000       0.00000000          1
H         4.26548764       9.96614603       6.42454690         0.00000000       0.00000000       0.00000000          1
6
pbc=[F, F, F] list_num_par=6 frozen=false iter=20000 energy=-1.26974174 Lattice="15.00000000 0.00000000 0.00000000 0.00000000 15.00000000 0.00000000 0.00000000 0.00000000 15.00000000" energy_frozen_part=0.00000000 Properties=species:S:1:pos:R:3:velocities:R:3:Z:I:1
H         2.62714493       9.06362784       4.34954544         0.00000000       0.00000000       0.00000000          1
H         2.19578995      11.58413775       5.47438784         0.00000000       0.00000000       0.00000000          1
H         5.28561300       9.74915596       3.83291500         0.00000000       0.00000000       0.00000000          1
H         3.21593081      11.36714689       2.88276433         0.00000000       0.00000000       0.00000000          1
H         4.85425602      12.26966132       4.95776672         0.00000000       0.00000000       0.00000000          1
H         4.26547685       9.96614653       6.42453879         0.00000000       0.00000000       0.00000000          1
6
pbc=[F, F, F] list_num_par=6 frozen=false iter=20000 energy=-1.26974174 Lattice="15.00000000 0.00000000 0.00000000 0.00000000 15.00000000 0.00000000 0.00000000 0.00000000 15.00000000" energy_frozen_part=0.00000000 Properties=species:S:1:pos:R:3:velocities:R:3:Z:I:1
H         5.42538085       9.33222925      12.79175566         0.00000000       0.00000000       0.00000000          1
H         6.52578182       9.34752502      10.22403540         0.00000000       0.00000000       0.00000000          1
H         8.09866357      10.05413921      12.42200340         0.00000000       0.00000000       0.00000000          1
H         6.21709215      11.98767457      13.14685906         0.00000000       0.00000000       0.00000000          1
H         4.64421206      11.28106092      10.94889952         0.00000000       0.00000000       0.00000000          1
H         7.31749538      12.00296616      10.57914586         0.00000000       0.00000000       0.00000000          1
6
pbc=[F, F, F] list_num_par=6 frozen=false iter=20000 energy=-1.26974174 Lattice="15.00000000 0.00000000 0.00000000 0.00000000 15.00000000 0.00000000 0.00000000 0.00000000 15.00000000" energy_frozen_part=0.00000000 Properties=species:S:1:pos:R:3:velocities:R:3:Z:I:1
H         2.62714515       9.06363675       4.34954980         0.00000000       0.00000000       0.00000000          1
H         2.19579399      11.58413610       5.47440646         0.00000000       0.00000000       0.00000000          1
H         5.28560980       9.74916307       3.83291882         0.00000000       0.00000000       0.00000000          1
H         3.21592461      11.36715275       2.88277322         0.00000000       0.00000000       0.00000000          1
H         4.85426004      12.26966904       4.95777142         0.00000000       0.00000000       0.00000000          1
H         4.26548020       9.96614771       6.42454898         0.00000000       0.00000000       0.00000000          1
6
pbc=[F, F, F] list_num_par=6 frozen=false iter=20000 energy=-1.26974174 Lattice="15.00000000 0.00000000 0.00000000 0.00000000 15.00000000 0.00000000 0.00000000 0.00000000 15.00000000" energy_frozen_part=0.00000000 Properties=species:S:1:pos:R:3:velocities:R:3:Z:I:1
H         2.62707183       9.06374679       4.34973544         0.00000000       0.00000000       0.00000000          1
H         2.19586401      11.58432425       5.47448199         0.00000000       0.00000000       0.00000000          1
H         5.28554656       9.74913453       3.83299088         0.00000000       0.00000000       0.00000000          1
H         3.21590035      11.36717226       2.88282979         0.00000000       0.00000000       0.00000000          1
H         4.85434479      12.26970765       4.95773525         0.00000000       0.00000000       0.00000000          1
H         4.26551485       9.96628679       6.42464481         0.00000000       0.00000000       0.00000000          1
6
pbc=[F, F, F] list_num_par=6 frozen=false iter=20000 energy=-1.26974174 Lattice="15.00000000 0.00000000 0.00000000 0.00000000 15.00000000 0.00000000 0.00000000 0.00000000 15.00000000" energy_frozen_part=0.00000000 Properties=species:S:1:pos:R:3:velocities:R:3:Z:I:1
H         2.62707773       9.06361310       4.34959684         0.00000000       0.00000000       0.00000000          1
H         2.19575143      11.58416616       5.47434013         0.00000000       0.00000000       0.00000000          1
H         5.28555597       9.74908554       3.83295514         0.00000000       0.00000000       0.00000000          1
H         3.21589588      11.36705846       2.88272923         0.00000000       0.00000000       0.00000000          1
H         4.85422168      12.26963510       4.95770204         0.00000000       0.00000000       0.00000000          1
H         4.26541387       9.96618836       6.42456840         0.00000000       0.00000000       0.00000000          1
6
pbc=[F, F, F] list_num_par=6 frozen=false iter=20000 energy=-1.26974174 Lattice="15.00000000 0.00000000 0.00000000 0.00000000 15.00000000 0.00000000 0.00000000 0.00000000 15.00000000" energy_frozen_part=0.00000000 Properties=species:S:1:pos:R:3:velocities:R:3:Z:I:1
H         2.62709172       9.06373329       4.34970879         0.00000000       0.00000000       0.00000000          1
H         2.19588382      11.58429867       5.47447197         0.00000000       0.00000000       0.00000000          1
H         5.28557234       9.74911528       3.83297146         0.00000000       0.00000000       0.00000000          1
H         3.21593105      11.36716972       2.88281935         0.00000000       0.00000000       0.00000000          1
H         4.85436802      12.26968228       4.95774011         0.00000000       0.00000000       0.00000000          1
H         4.26552297       9.96624860       6.42462383         0.00000000       0.00000000       0.00000000          1
6
pbc=[F, F, F] list_num_par=6 frozen=false iter=20000 energy=-1.26974174 Lattice="15.00000000 0.00000000 0.00000000 0.00000000 15.00000000 0.00000000 0.00000000 0.00000000 15.00000000" energy_frozen_part=0.00000000 Properties=species:S:1:pos:R:3:velocities:R:3:Z:I:1
H         2.62707407       9.06368752       4.34953478         0.00000000       0.00000000       0.00000000          1
H         2.19579436      11.58421738       5.47436153         0.00000000       0.00000000       0.00000000          1
H         5.28558276       9.74910415       3.83296981         0.00000000       0.00000000       0.00000000          1
H         3.21597611      11.36716484       2.88276016         0.00000000       0.00000000       0.00000000          1
H         4.85429609      12.26963205       4.95778842         0.00000000       0.00000000       0.00000000          1
H         4.26539316       9.96615116       6.42457160         0.00000000       0.00000000       0.00000000          1
6
pbc=[F, F, F] list_num_par=6 frozen=false iter=20000 energy=-1.26974174 Lattice="15.00000000 0.00000000 0.00000000 0.00000000 15.00000000 0.00000000 0.00000000 0.00000000 15.00000000" energy_frozen_part=0.00000000 Properties=species:S:1:pos:R:3:velocities:R:3:Z:I:1
H         2.62708361       9.06367330       4.34951299         0.00000000       0.00000000       0.00000000          1
H         2.19576875      11.58418996       5.47434346         0.00000000       0.00000000       0.00000000          1
H         5.28558356       9.74912426       3.83297441         0.00000000       0.00000000       0.00000000          1
H         3.21597791      11.36717455       2.88275062         0.00000000       0.00000000       0.00000000          1
H         4.85427058      12.26963319       4.95780526         0.00000000       0.00000000       0.00000000          1
H         4.26536877       9.96613765       6.42457215         0.00000000       0.00000000       0.00000000          1
6
pbc=[F, F, F] list_num_par=6 frozen=false iter=20000 energy=-1.26974174 Lattice="15.00000000 0.00000000 0.00000000 0.00000000 15.00000000 0.00000000 0.00000000 0.00000000 15.00000000" energy_frozen_part=0.00000000 Properties=species:S:1:pos:R:3:velocities:R:3:Z:I:1
H         5.42540307       9.33227705      12.79187355         0.00000000       0.00000000       0.00000000          1
H         6.52575554       9.34747522      10.22413522         0.00000000       0.00000000       0.00000000          1
H         8.09867898      10.05413513      12.42205113         0.00000000       0.00000000       0.00000000          1
H         6.21715362      11.98772332      13.14688406         0.00000000       0.00000000       0.00000000          1
H         4.64422373      11.28105994      10.94897525         0.00000000       0.00000000       0.00000000          1
H         7.31751091      12.00292141      10.57914652         0.00000000       0.00000000       0.00000000          1
6
pbc=[F, F, F] list_num_par=6 frozen=false iter=20000 energy=-1.26974174 Lattice="15.00000000 0.00000000 0.00000000 0.00000000 15.00000000 0.00000000 0.00000000 0.00000000 15.00000000" energy_frozen_part=0.00000000 Properties=species:S:1:pos:R:3:velocities:R:3:Z:I:1
H         5.42558108       9.33172857      12.79178810         0.00000000       0.00000000       0.00000000          1
H         6.52560699       9.34725089      10.22391626         0.00000000       0.00000000       0.00000000          1