6
pbc=[F, F, F] list_num_par=6 frozen=false iter=20000 energy=-1.26974174 Lattice="15.00000000 0.00000000 0.00000000 0.00000000 15.00000000 0.00000000 0.00000000 0.00000000 15.00000000" energy_frozen_part=0.00000000 Properties=species:S:1:pos:R:3:velocities:R:3:Z:I:1
H         5.47024425       6.90015465       4.36142552         0.00000000       0.00000000       0.00000000          1
H         7.81379931       7.36836508       5.80808686         0.00000000       0.00000000       0.00000000          1
H         7.62763854       8.19297209       3.14544980         0.00000000       0.00000000       0.00000000          1
H         5.49015205       8.79639404       6.41280368         0.00000000       0.00000000       0.00000000          1
H         5.30399089       9.62099762       3.75016347         0.00000000       0.00000000       0.00000000          1
H         7.64753467      10.08922066       5.19683014         0.00000000       0.00000000       0.00000000          1
6
pbc=[F, F, F] list_num_par=6 frozen=false iter=20000 energy=-1.26974174 Lattice="15.00000000 0.00000000 0.00000000 0.00000000 15.00000000 0.00000000 0.00000000 0.00000000 15.00000000" energy_frozen_part=0.00000000 Properties=species:S:1:pos:R:3:velocities:R:3:Z:I:1
H         6.22150295       6.05357673       1.81532266         0.00000000       0.00000000       0.00000000          1
H         7.49511126       5.18421052       4.14479631         0.00000000       0.00000000       0.00000000          1
H         7.98732834       7.75117824       3.15856048         0.00000000       0.00000000       0.00000000          1
H         4.75326251       5.71900716       4.16832185         0.00000000       0.00000000       0.00000000          1
H         5.24548548       8.28597935       3.18209280         0.00000000       0.00000000       0.00000000          1
H         6.51908161       7.41661080       5.51156885         0.00000000       0.00000000       0.00000000          1
6
pbc=[F, F, F] list_num_par=6 frozen=false iter=20000 energy=-1.26974174 Lattice="15.00000000 0.00000000 0.00000000 0.00000000 15.00000000 0.00000000 0.00000000 0.00000000 15.00000000" energy_frozen_part=0.00000000 Properties=species:S:1:pos:R:3:velocities:R:3:Z:I:1
H         6.22204684       6.05563258       1.81486918         0.00000000       0.00000000       0.00000000          1
H         7.49372288       5.18593396       4.14526946         0.00000000       0.00000000       0.00000000          1
H         7.98632324       7.75324947       3.16010882         0.00000000       0.00000000       0.00000000          1
H         4.75175499       5.72019298       4.16645941         0.00000000       0.00000000       0.00000000          1
H         5.24435495       8.28750648       3.18129852         0.00000000       0.00000000       0.00000000          1
H         6.51602774       7.41781082       5.51170100         0.00000000       0.00000000       0.00000000          1
6
pbc=[F, F, F] list_num_par=6 frozen=false iter=20000 energy=-1.26974174 Lattice="15.00000000 0.00000000 0.00000000 0.00000000 15.00000000 0.00000000 0.00000000 0.00000000 15.00000000" energy_frozen_part=0.00000000 Properties=species:S:1:pos:R:3:velocities:R:3:Z:I:1
H         5.47046909       6.90076057       4.36119479         0.00000000       0.00000000       0.00000000          1
H         7.81337712       7.36900286       5.80888384         0.00000000       0.00000000       0.00000000          1
H         7.62845404       8.19339091       3.14608646         0.00000000       0.00000000       0.00000000          1
H         5.48952088       8.79717960       6.41242694         0.00000000       0.00000000       0.00000000          1
H         5.30459526       9.62155769       3.74962747         0.00000000       0.00000000       0.00000000          1
H         7.64751254      10.08980454       5.19731270         0.00000000       0.00000000       0.00000000          1
6
pbc=[F, F, F] list_num_par=6 frozen=false iter=20000 energy=-1.26974174 Lattice="15.00000000 0.00000000 0.00000000 0.00000000 15.00000000 0.00000000 0.00000000 0.00000000 15.00000000" energy_frozen_part=0.00000000 Properties=species:S:1:pos:R:3:velocities:R:3:Z:I:1
H         6.22122734       6.05334482       1.81575056         0.00000000       0.00000000       0.00000000          1
H         7.49501477       5.18401357       4.14512566         0.00000000       0.00000000       0.00000000          1
H         7.98733325       7.75089248       3.15869989         0.00000000       0.00000000       0.00000000          1
H         4.75321051       5.71901526       4.16893406         0.00000000       0.00000000       0.00000000          1
H         5.24552441       8.28589734       3.18249150         0.00000000       0.00000000       0.00000000          1
H         6.51931596       7.41656653       5.51187458         0.00000000       0.00000000       0.00000000          1
6
pbc=[F, F, F] list_num_par=6 frozen=false iter=20000 energy=-1.26974174 Lattice="15.00000000 0.00000000 0.00000000 0.00000000 15.00000000 0.00000000 0.00000000 0.00000000 15.00000000" energy_frozen_part=0.00000000 Properties=species:S:1:pos:R:3:velocities:R:3:Z:I:1
H         6.22118244       6.05335111       1.81575003         0.00000000       0.00000000       0.00000000          1
H         7.49491820       5.18392335       4.14511842         0.00000000       0.00000000       0.00000000          1
H         7.98735668       7.75079628       3.15871700         0.00000000       0.00000000       0.00000000          1
H         4.75314435       5.71906902       4.16892089         0.00000000       0.00000000       0.00000000          1
H         5.24558080       8.28593107       3.18251348         0.00000000       0.00000000       0.00000000          1
H         6.51932084       7.41650904       5.51188818         0.00000000       0.00000000       0.00000000          1
6
pbc=[F, F, F] list_num_par=6 frozen=false iter=20000 energy=-1.26974174 Lattice="15.00000000 0.00000000 0.00000000 0.00000000 15.00000000 0.00000000 0.00000000 0.00000000 15.00000000" energy_frozen_part=0.00000000 Properties=species:S:1:pos:R:3:velocities:R:3:Z:I:1
H         5.47024529       6.90016283       4.36143272         0.00000000       0.00000000       0.00000000          1
H         7.81381437       7.36836019       5.80807473         0.00000000       0.00000000       0.00000000          1
H         7.62762863       8.19297540       3.14544215         0.00000000       0.00000000       0.00000000          1
H         5.49018227       8.79639024       6.41282555         0.00000000       0.00000000       0.00000000          1
H         5.30398887       9.62100823       3.75018646         0.00000000       0.00000000       0.00000000          1
H         7.64755112      10.08920220       5.19683015         0.00000000       0.00000000       0.00000000          1
6
pbc=[F, F, F] list_num_par=6 frozen=false iter=20000 energy=-1.26974174 Lattice="15.00000000 0.00000000 0.00000000 0.00000000 15.00000000 0.00000000 0.00000000 0.00000000 15.00000000" energy_frozen_part=0.00000000 Properties=species:S:1:pos:R:3:velocities:R:3:Z:I:1
H         6.22197072       6.05545057       1.81492572         0.00000000       0.00000000       0.00000000          1
H         7.49366221       5.18594735       4.14538850         0.00000000       0.00000000       0.00000000          1
H         7.98635240       7.75313703       3.15994968         0.00000000       0.00000000       0.00000000          1
H         4.75172151       5.72031296       4.16659998         0.00000000       0.00000000       0.00000000          1
H         5.24440217       8.28749708       3.18116282         0.00000000       0.00000000       0.00000000          1
H         6.51610199       7.41800167       5.51161959         0.00000000       0.00000000       0.00000000          1
6
pbc=[F, F, F] list_num_par=6 frozen=false iter=20000 energy=-1.26974174 Lattice="15.00000000 0.00000000 0.00000000 0.00000000 15.00000000 0.00000000 0.00000000 0.00000000 15.00000000" energy_frozen_part=0.00000000 Properties=species:S:1:pos:R:3:velocities:R:3:Z:I:1
H         6.22148729       6.05352913       1.81535888         0.00000000       0.00000000       0.00000000          1
H         7.49511474       5.18420958       4.14483369         0.00000000       0.00000000       0.00000000          1
H         7.98731667       7.75116378       3.15854949         0.00000000       0.00000000       0.00000000          1
H         4.75325529       5.71899606       4.16836686         0.00000000       0.00000000       0.00000000          1
H         5.24546672       8.28595422       3.18209090         0.00000000       0.00000000       0.00000000          1
H         6.51907974       7.41662675       5.51156267         0.00000000       0.00000000       0.00000000          1
6
pbc=[F, F, F] list_num_par=6 frozen=false iter=20000 energy=-1.26974174 Lattice="15.00000000 0.00000000 0.00000000 0.00000000 15.00000000 0.00000000 0.00000000 0.00000000 15.00000000" energy_frozen_part=0.00000000 Properties=species:S:1:pos:R:3:velocities:R:3:Z:I:1
H         5.47025798       6.90008337       4.36146126         0.00000000       0.00000000       0.00000000          1
H         7.81381984       7.36836808       5.80809244         0.00000000       0.00000000       0.00000000          1
H         7.62761514       8.19291728       3.14543462         0.00000000       0.00000000       0.00000000          1
H         5.49015315       8.79636127       6.41280632         0.00000000       0.00000000       0.00000000          1
H         5.30394683       9.62091375       3.75015166         0.00000000       0.00000000       0.00000000          1
H         7.64750272      10.08919481       5.19677384         0.00000000       0.00000000       0.00000000          1
6
pbc=[F, F, F] list_num_par=6 frozen=false iter=20000 energy=-1.26974174 Lattice="15.00000000 0.00000000 0.00000000 0.00000000 15.00000000 0.00000000 0.00000000 0.00000000 15.00000000" energy_frozen_part=0.00000000 Properties=species:S:1:pos:R:3:velocities:R:3:Z:I:1
H         6.22208462       6.05558609       1.81486615         0.00000000       0.00000000       0.00000000          1
H         7.49367168       5.18589965       4.14531626         0.00000000       0.00000000       0.00000000          1
H         7.98634077       7.75320310       3.16016794         0.00000000       0.00000000       0.00000000          1
H         4.75170184       5.72018055       4.16640919         0.00000000       0.00000000       0.00000000          1
H         5.24438088       8.28748029       3.18125701         0.00000000       0.00000000       0.00000000          1
H         6.51595461       7.41779000       5.51171149         0.00000000       0.00000000       0.00000000          1
6
pbc=[F, F, F] list_num_par=6 frozen=false iter=20000 energy=-1.26974174 Lattice="15.00000000 0.00000000 0.00000000 0.00000000 15.00000000 0.00000000 0.00000000 0.00000000 15.00000000" energy_frozen_part=0.00000000 Properties=species:S:1:pos:R:3:velocities:R:3:Z:I:1
H         6.22123035       6.05332871       1.81572326         0.00000000       0.00000000       0.00000000          1
H         7.49500372       5.18398418       4.14510339         0.00000000       0.00000000       0.00000000          1
H         7.98734488       7.75085452       3.15866872         0.00000000       0.00000000       0.00000000          1
H         4.75321311       5.71901507       4.16889975         0.00000000       0.00000000       0.00000000          1
H         5.24555417       8.28589034       3.18246613         0.00000000       0.00000000       0.00000000          1
H         6.51932922       7.41654611       5.51185165         0.00000000       0.00000000       0.00000000          1
6
pbc=[F, F, F] list_num_par=6 frozen=false iter=20000 energy=-1.26974174 Lattice="15.00000000 0.00000000 0.00000000 0.00000000 15.00000000 0.00000000 0.00000000 0.00000000 15.00000000" energy_frozen_part=0.00000000 Properties=species:S:1:pos:R:3:velocities:R:3:Z:I:1
H         5.47022141       6.90016274       4.36141367         0.00000000       0.00000000       0.00000000          1
H         7.81376874       7.36832366       5.80809043         0.00000000       0.00000000       0.00000000          1
H         7.62764176       8.19291879       3.14544411         0.00000000       0.00000000       0.00000000          1
H         5.49016236       8.79641648       6.41277602         0.00000000       0.00000000       0.00000000          1
H         5.30402558       9.62100685       3.75012970         0.00000000       0.00000000       0.00000000          1
H         7.64758004      10.08917270       5.19680969         0.00000000       0.00000000       0.00000000          1
6
pbc=[F, F, F] list_num_par=6 frozen=false iter=20000 energy=-1.26974174 Lattice="15.00000000 0.00000000 0.00000000 0.00000000 15.00000000 0.00000000 0.00000000 0.00000000 15.00000000" energy_frozen_part=0.00000000 Properties=species:S:1:pos:R:3:velocities:R:3:Z:I:1
H         5.47025360       6.90013807       4.36147038         0.00000000       0.00000000       0.00000000          1
H         7.81384786       7.36836937       5.80805895         0.00000000       0.00000000       0.00000000          1
H         7.62760354       8.19294868       3.14542568         0.00000000       0.00000000       0.00000000          1
H         5.49021338       8.79639577       6.41283518         0.00000000       0.00000000       0.00000000          1
H         5.30397923       9.62098691       3.75019771         0.00000000       0.00000000       0.00000000          1
H         7.64756537      10.08920869       5.19679529         0.00000000       0.00000000       0.00000000          1
6
pbc=[F, F, F] list_num_par=6 frozen=false iter=20000 energy=-1.26974174 Lattice="15.00000000 0.00000000 0.00000000 0.00000000 15.00000000 0.00000000 0.00000000 0.00000000 15.00000000" energy_frozen_part=0.00000000 Properties=species:S:1:pos:R:3:velocities:R:3:Z:I:1
H         6.22118751       6.05331659       1.81572092         0.00000000       0.00000000       0.00000000          1
H         7.49495093       5.18394773       4.14510366         0.00000000       0.00000000       0.00000000          1
H         7.98729650       7.75082970       3.15870676         0.00000000       0.00000000       0.00000000          1
H         4.75314627       5.71897039       4.16888146         0.00000000       0.00000000       0.00000000          1
H         5.24549680       8.28585902       3.18249034         0.00000000       0.00000000       0.00000000          1
H         6.51924695       7.41649272       5.51186956         0.00000000       0.00000000       0.00000000          1
6
pbc=[F, F, F] list_num_par=6 frozen=false iter=20000 energy=-1.26974174 Lattice="15.00000000 0.00000000 0.00000000 0.00000000 15.00000000 0.00000000 0.00000000 0.00000000 15.00000000" energy_frozen_part=0.00000000 Properties=species:S:1:pos:R:3:velocities:R:3:Z:I:1
H         6.22204884       6.05564193       1.81486064         0.00000000       0.00000000       0.00000000          1
H         7.49372421       5.18593500       4.14525760         0.00000000       0.00000000       0.00000000          1
H         7.98633526       7.75325548       3.16012302         0.00000000       0.00000000       0.00000000          1
H         4.75175641       5.72018693       4.16645108         0.00000000       0.00000000       0.00000000          1
H         5.24435884       8.28750807       3.18130786         0.00000000       0.00000000       0.00000000          1
H         6.51602550       7.41779798       5.51170642         0.00000000       0.00000000       0.00000000          1
6
pbc=[F, F, F] list_num_par=6 frozen=false iter=20000 energy=-1.26974174 Lattice="15.00000000 0.00000000 0.00000000 0.00000000 15.00000000 0.00000000 0.00000000 0.00000000 15.00000000" energy_frozen_part=0.00000000 Properties=species:S:1:pos:R:3:velocities:R:3:Z:I:1
H         5.47022170       6.90015875       4.36140781         0.00000000       0.00000000       0.00000000          1
H         7.81376964       7.36835336       5.80808142         0.00000000       0.00000000       0.00000000          1
H         7.62763136       8.19293286       3.14543157         0.00000000       0.00000000       0.00000000          1
H         5.49013989       8.79642260       6.41277349         0.00000000       0.00000000       0.00000000          1
H         5.30400990       9.62100520       3.75013045         0.00000000       0.00000000       0.00000000          1
H         7.64755477      10.08919689       5.19680374         0.00000000       0.00000000       0.00000000          1
6
pbc=[F, F, F] list_num_par=6 frozen=false iter=20000 energy=-1.26974174 Lattice="15.00000000 0.00000000 0.00000000 0.00000000 15.00000000 0.00000000 0.00000000 0.00000000 15.00000000" energy_frozen_part=0.00000000 Properties=species:S:1:pos:R:3:velocities:R:3:Z:I:1
H         5.47043955       6.90078231       4.36123873         0.00000000       0.00000000       0.00000000          1
H         7.81339665       7.36901577       5.80885790         0.00000000       0.00000000       0.00000000          1
H         7.62840453       8.19338409       3.14606229         0.00000000       0.00000000       0.00000000          1
H         5.48956511       8.79720601       6.41246136         0.00000000       0.00000000       0.00000000          1
H         5.30457551       9.62157842       3.74967209         0.00000000       0.00000000       0.00000000          1
H         7.64753023      10.08981042       5.19728892         0.00000000       0.00000000       0.00000000          1
6
pbc=[F, F, F] list_num_par=6 frozen=false iter=20000 energy=-1.26974174 Lattice="15.00000000 0.00000000 0.00000000 0.00000000 15.00000000 0.00000000 0.00000000 0.00000000 15.00000000" energy_frozen_part=0.00000000 Properties=species:S:1:pos:R:3:velocities:R:3:Z:I:1
H         6.22118931       6.05332311       1.81574661         0.00000000       0.00000000       0.00000000          1
H         7.49492825       5.18391992       4.14513040         0.00000000       0.00000000       0.00000000          1
H         7.98736607       7.75077998       3.15871296         0.00000000       0.00000000       0.00000000          1
H         4.75314242       5.71906782       4.16891361         0.00000000       0.00000000       0.00000000          1
H         5.24559316       8.28592237       3.18249354         0.00000000       0.00000000       0.00000000          1
H         6.51932247       7.41651577       5.51188447         0.00000000       0.00000000       0.00000000          1
6
pbc=[F, F, F] list_num_par=6 frozen=false iter=20000 energy=-1.26974174 Lattice="15.00000000 0.00000000 0.00000000 0.00000000 15.00000000 0.00000000 0.00000000 0.00000000 15.00000000" energy_frozen_part=0.00000000 Properties=species:S:1:pos:R:3:velocities:R:3:Z:I:1
H         5.47026155       6.90016512       4.36142381         0.00000000       0.00000000       0.00000000          1
H         7.81380769       7.36837573       5.80809055         0.00000000       0.00000000       0.00000000          1
H         7.62764859       8.19297830       3.14543968         0.00000000       0.00000000       0.00000000          1
H         5.49015747       8.79640928       6.41279901         0.00000000       0.00000000       0.00000000          1
H         5.30399959       9.62100902       3.75015466         0.00000000       0.00000000       0.00000000          1
H         7.64755033      10.08922163       5.19681393         0.00000000       0.00000000       0.00000000          1
6
pbc=[F, F, F] list_num_par=6 frozen=false iter=20000 energy=-1.26974174 Lattice="15.00000000 0.00000000 0.00000000 0.00000000 15.00000000 0.00000000 0.00000000 0.00000000 15.00000000" energy_frozen_part=0.00000000 Properties=species:S:1:pos:R:3:velocities:R:3:Z:I:1
H         5.47019246       6.90019666       4.36144906         0.00000000       0.00000000       0.00000000          1
H         7.81379247       7.36831062       5.80806495         0.00000000       0.00000000       0.00000000          1
H         7.62759129       8.19295633       3.14543486         0.00000000       0.00000000       0.00000000          1
H         5.49021343       8.79641606       6.41284704         0.00000000       0.00000000       0.00000000          1
H         5.30401505       9.62106151       3.75022389         0.00000000       0.00000000       0.00000000          1
H         7.64762246      10.08916709       5.19683010         0.00000000       0.00000000       0.00000000          1
6
pbc=[F, F, F] list_num_par=6 frozen=false iter=20000 energy=-1.26974174 Lattice="15.00000000 0.00000000 0.00000000 0.00000000 15.00000000 0.00000000 0.00000000 0.00000000 15.00000000" energy_frozen_part=0.00000000 Properties=species:S:1:pos:R:3:velocities:R:3:Z:I:1
H         5.47025085       6.90015446       4.36144726         0.00000000       0.00000000       0.00000000          1
H         7.81382063       7.36835693       5.80809579         0.00000000       0.00000000       0.00000000          1
H         7.62762712       8.19296690       3.14545472         0.00000000       0.00000000       0.00000000          1
H         5.49018640       8.79639053       6.41282956         0.00000000       0.00000000       0.00000000          1
H         5.30398942       9.62100620       3.75019204         0.00000000       0.00000000       0.00000000          1
H         7.64755469      10.08920913       5.19683012         0.00000000       0.00000000       0.00000000          1
6
pbc=[F, F, F] list_num_par=6 frozen=false iter=20000 energy=-1.26974174 Lattice="15.00000000 0.00000000 0.00000000 0.00000000 15.00000000 0.00000000 0.00000000 0.00000000 15.00000000" energy_frozen_part=0.00000000 Properties=species:S:1:pos:R:3:velocities:R:3:Z:I:1
H         6.22201851       6.05556175       1.81491436         0.00000000       0.00000000       0.00000000          1
H         7.49368234       5.18595537       4.14535515         0.00000000       0.00000000       0.00000000          1
H         7.98628237       7.75323469       3.16012270         0.00000000       0.00000000       0.00000000          1
H         4.75170827       5.72018122       4.16650498         0.00000000       0.00000000       0.00000000          1
H         5.24430278       8.28746430       3.18128343         0.00000000       0.00000000       0.00000000          1
H         6.51596880       7.41785256       5.51171713         0.00000000       0.00000000       0.00000000          1
6
pbc=[F, F, F] list_num_par=6 frozen=false iter=20000 energy=-1.26974174 Lattice="15.00000000 0.00000000 0.00000000 0.00000000 15.00000000 0.00000000 0.00000000 0.00000000 15.00000000" energy_frozen_part=0.00000000 Properties=species:S:1:pos:R:3:velocities:R:3:Z:I:1
H         6.22164668       6.05341404       1.81537476         0.00000000       0.00000000       0.00000000          1
H         7.49523756       5.18415962       4.14488695         0.00000000       0.00000000       0.00000000          1
H         7.98736187       7.75113023       3.15862028         0.00000000       0.00000000       0.00000000          1
H         4.75336545       5.71881713       4.16835711         0.00000000       0.00000000       0.00000000          1
H         5.24548701       8.28578879       3.18207703         0.00000000       0.00000000       0.00000000          1
H         6.51907906       7.41653923       5.51159726         0.00000000       0.00000000       0.00000000          1
6
pbc=[F, F, F] list_num_par=6 frozen=false iter=20000 energy=-1.26974174 Lattice="15.00000000 0.00000000 0.00000000 0.00000000 15.00000000 0.00000000 0.00000000 0.00000000 15.00000000" energy_frozen_part=0.00000000 Properties=species:S:1:pos:R:3:velocities:R:3:Z:I:1
H         6.22168079       6.05349561       1.81535656         0.00000000       0.00000000       0.00000000          1
H         7.49523670       5.18418164       4.14486939         0.00000000       0.00000000       0.00000000          1
H         7.98735919       7.75118515       3.15867273         0.00000000       0.00000000       0.00000000          1
H         4.75335864       5.71883073       4.16830112         0.00000000       0.00000000       0.00000000          1
H         5.24548960       8.28583195       3.18209857         0.00000000       0.00000000       0.00000000          1
H         6.51904550       7.41652843       5.51161389         0.00000000       0.00000000       0.00000000          1
6
pbc=[F, F, F] list_num_par=6 frozen=false iter=20000 energy=-1.26974174 Lattice="15.00000000 0.00000000 0.00000000 0.00000000 15.00000000 0.00000000 0.00000000 0.00000000 15.00000000" energy_frozen_part=0.00000000 Properties=species:S:1:pos:R:3:velocities:R:3:Z:I:1
H         5.47013092       6.90015508       4.36145185         0.00000000       0.00000000       0.00000000          1
H         7.81372792       7.36834922       5.80805811         0.00000000       0.00000000       0.00000000          1
H         7.62750131       8.19293046       3.14541485         0.00000000       0.00000000       0.00000000          1
H         5.49011127       8.79640344       6.41282721         0.00000000       0.00000000       0.00000000          1
H         5.30388324       9.62099156       3.75018470         0.00000000       0.00000000       0.00000000          1
H         7.64747433      10.08919068       5.19678229         0.00000000       0.00000000       0.00000000          1
6
pbc=[F, F, F] list_num_par=6 frozen=false iter=20000 energy=-1.26974174 Lattice="15.00000000 0.00000000 0.00000000 0.00000000 15.00000000 0.00000000 0.00000000 0.00000000 15.00000000" energy_frozen_part=0.00000000 Properties=species:S:1:pos:R:3:velocities:R:3:Z:I:1
H         5.47047458       6.90087862       4.36115351         0.00000000       0.00000000       0.00000000          1
H         7.81339181       7.36899118       5.80887152         0.00000000       0.00000000       0.00000000          1
H         7.62849967       8.19349645       3.14611162         0.00000000       0.00000000       0.00000000          1
H         5.48956618       8.79720476       6.41246543         0.00000000       0.00000000       0.00000000          1
H         5.30466894       9.62171485       3.74970411         0.00000000       0.00000000       0.00000000          1
H         7.64759303      10.08981904       5.19741128         0.00000000       0.00000000       0.00000000          1
6
pbc=[F, F, F] list_num_par=6 frozen=false iter=20000 energy=-1.26974174 Lattice="15.00000000 0.00000000 0.00000000 0.00000000 15.00000000 0.00000000 0.00000000 0.00000000 15.00000000" energy_frozen_part=0.00000000 Properties=species:S:1:pos:R:3:velocities:R:3:Z:I:1
H         6.22149415       6.05361435       1.81538935         0.00000000       0.00000000       0.00000000          1
H         7.49510609       5.18419266       4.14483006         0.00000000       0.00000000       0.00000000          1
H         7.98729520       7.75120352       3.15867904         0.00000000       0.00000000       0.00000000          1
H         4.75325068       5.71894794       4.16836774         0.00000000       0.00000000       0.00000000          1
H         5.24543655       8.28596587       3.18222630         0.00000000       0.00000000       0.00000000          1
H         6.51905299       7.41653067       5.51166539         0.00000000       0.00000000       0.00000000          1
6
pbc=[F, F, F] list_num_par=6 frozen=false iter=20000 energy=-1.26974174 Lattice="15.00000000 0.00000000 0.00000000 0.00000000 15.00000000 0.00000000 0.00000000 0.00000000 15.00000000" energy_frozen_part=0.00000000 Properties=species:S:1:pos:R:3:velocities:R:3:Z:I:1
H         5.47024401       6.90016190       4.36142619         0.00000000       0.00000000       0.00000000          1
H         7.81379423       7.36834389       5.80809869         0.00000000       0.00000000       0.00000000          1
H         7.62764264       8.19294463       3.14545540         0.00000000       0.00000000       0.00000000          1
H         5.49017440       8.79641137       6.41280458         0.00000000       0.00000000       0.00000000          1
H         5.30401959       9.62101513       3.75016629         0.00000000       0.00000000       0.00000000          1
H         7.64757456      10.08919142       5.19682661         0.00000000       0.00000000       0.00000000          1
6
pbc=[F, F, F] list_num_par=6 frozen=false iter=20000 energy=-1.26974174 Lattice="15.00000000 0.00000000 0.00000000 0.00000000 15.00000000 0.00000000 0.00000000 0.00000000 15.00000000" energy_frozen_part=0.00000000 Properties=species:S:1:pos:R:3:velocities:R:3:Z:I:1
H         5.47025036       6.90008704       4.36146424         0.00000000       0.00000000       0.00000000          1
H         7.81380291       7.36835483       5.80809739         0.00000000       0.00000000       0.00000000          1
H         7.62760495       8.19291523       3.14544507         0.00000000       0.00000000       0.00000000          1
H         5.49014355       8.79636186       6.41281097         0.00000000       0.00000000       0.00000000          1
H         5.30395520       9.62092248       3.75016023         0.00000000       0.00000000       0.00000000          1
H         7.64751301      10.08918410       5.19680050         0.00000000       0.00000000       0.00000000          1
6
pbc=[F, F, F] list_num_par=6 frozen=false iter=20000 energy=-1.26974174 Lattice="15.00000000 0.00000000 0.00000000 0.00000000 15.00000000 0.00000000 0.00000000 0.00000000 15.00000000" energy_frozen_part=0.00000000 Properties=species:S:1:pos:R:3:velocities:R:3:Z:I:1
H         6.22119608       6.05335076       1.81573305         0.00000000       0.00000000       0.00000000          1
H         7.49491587       5.18392240       4.14512010         0.00000000       0.00000000       0.00000000          1