6
pbc=[F, F, F] list_num_par=6 frozen=false iter=9 energy=75.17814452 Lattice="15.00000000 0.00000000 0.00000000 0.00000000 15.00000000 0.00000000 0.00000000 0.00000000 15.00000000" energy_frozen_part=0.00000000 Properties=species:S:1:pos:R:3:velocities:R:3:Z:I:1
H        13.13660250       5.91744855       8.80721544         0.00000000       0.00000000       0.00000000          1
H         4.20488579       4.09796402      10.85558418         0.00000000       0.00000000       0.00000000          1
H        10.86566090       6.31404919      13.49357535         0.00000000       0.00000000       0.00000000          1
H         8.81551546      11.04897439       1.86801826         0.00000000       0.00000000       0.00000000          1
H        10.00488501       6.04103519      12.16530736         0.00000000       0.00000000       0.00000000          1
H         1.55769846      13.32244375       6.43438082         0.00000000       0.00000000       0.00000000          1
6
pbc=[F, F, F] list_num_par=6 frozen=false iter=19 energy=2.61694602 Lattice="15.00000000 0.00000000 0.00000000 0.00000000 15.00000000 0.00000000 0.00000000 0.00000000 15.00000000" energy_frozen_part=0.00000000 Properties=species:S:1:pos:R:3:velocities:R:3:Z:I:1
H         2.95601336      10.58575269      13.50948545         0.00000000       0.00000000       0.00000000          1
H         0.96623596       6.64842368       8.01594068         0.00000000       0.00000000       0.00000000          1
H         6.98878172       7.65671274       6.77926874         0.00000000       0.00000000       0.00000000          1
H         9.09224846      14.14780961       9.02350464         0.00000000       0.00000000       0.00000000          1
H         3.69089275      10.24722568       4.21410397         0.00000000       0.00000000       0.00000000          1
H         7.34053187      13.15537055       8.54771048         0.00000000       0.00000000       0.00000000          1
6
pbc=[F, F, F] list_num_par=6 frozen=false iter=29 energy=-0.00112400 Lattice="15.00000000 0.00000000 0.00000000 0.00000000 15.00000000 0.00000000 0.00000000 0.00000000 15.00000000" energy_frozen_part=0.00000000 Properties=species:S:1:pos:R:3:velocities:R:3:Z:I:1
H         0.45463545       5.44565818      14.27513060         0.00000000       0.00000000       0.00000000          1
H         9.23569987       9.95351466       8.29755096         0.00000000       0.00000000       0.00000000          1
H        13.34404006      13.57920675       0.17114584         0.00000000       0.00000000       0.00000000          1
H         6.31217110       2.54282966       9.62561349         0.00000000       0.00000000       0.00000000          1
H         0.69196021       2.16830337       4.68490986         0.00000000       0.00000000       0.00000000          1
H         0.04788703      12.98837446       9.90816726         0.00000000       0.00000000       0.00000000          1
6
pbc=[F, F, F] list_num_par=6 frozen=false iter=39 energy=-0.00622851 Lattice="15.00000000 0.00000000 0.00000000 0.00000000 15.00000000 0.00000000 0.00000000 0.00000000 15.00000000" energy_frozen_part=0.00000000 Properties=species:S:1:pos:R:3:velocities:R:3:Z:I:1
H         4.30518965      11.08811396      10.75669149         0.00000000       0.00000000       0.00000000          1
H         4.31270640      14.82050148       2.99742711         0.00000000       0.00000000       0.00000000          1
H         2.38409672       4.73321144      12.48658924         0.00000000       0.00000000       0.00000000          1
H         0.57935551      12.19489901       0.50319449         0.00000000       0.00000000       0.00000000          1
H         5.74756170       5.23961795       4.32374780         0.00000000       0.00000000       0.00000000          1
H        12.52624636       4.78906330       9.04250577         0.00000000       0.00000000       0.00000000          1
6
pbc=[F, F, F] list_num_par=6 frozen=false iter=49 energy=-0.01086661 Lattice="15.00000000 0.00000000 0.00000000 0.00000000 15.00000000 0.00000000 0.00000000 0.00000000 15.00000000" energy_frozen_part=0.00000000 Properties=species:S:1:pos:R:3:velocities:R:3:Z:I:1
H         5.46883607       7.90206883      12.33912729         0.00000000       0.00000000       0.00000000          1
H         6.44578586      13.80572354       1.75273333         0.00000000       0.00000000       0.00000000          1
H         0.42641077       8.34566845      12.54609692         0.00000000       0.00000000       0.00000000          1
H         2.03428588      10.28759285       2.19133441         0.00000000       0.00000000       0.00000000          1
H         6.30602422       3.38846644       4.07369589         0.00000000       0.00000000       0.00000000          1
H        10.74822976       3.57118158       8.15434744         0.00000000       0.00000000       0.00000000          1
6
pbc=[F, F, F] list_num_par=6 frozen=false iter=59 energy=-0.01572387 Lattice="15.00000000 0.00000000 0.00000000 0.00000000 15.00000000 0.00000000 0.00000000 0.00000000 15.00000000" energy_frozen_part=0.00000000 Properties=species:S:1:pos:R:3:velocities:R:3:Z:I:1
H        10.68065097       5.08649119      11.08274447         0.00000000       0.00000000       0.00000000          1
H         1.48028025      11.55958912       4.90697992         0.00000000       0.00000000       0.00000000          1
H         6.51324772       0.43042931       7.69144889         0.00000000       0.00000000       0.00000000          1
H         9.05462905       6.12084586       2.45561018         0.00000000       0.00000000       0.00000000          1
H         4.66485613       4.07103077       5.86181343         0.00000000       0.00000000       0.00000000          1
H         9.20554633      14.27493014       5.49247798         0.00000000       0.00000000       0.00000000          1
6
pbc=[F, F, F] list_num_par=6 frozen=false iter=69 energy=-0.02120467 Lattice="15.00000000 0.00000000 0.00000000 0.00000000 15.00000000 0.00000000 0.00000000 0.00000000 15.00000000" energy_frozen_part=0.00000000 Properties=species:S:1:pos:R:3:velocities:R:3:Z:I:1
H        10.90260689      11.69835101       7.29181439         0.00000000       0.00000000       0.00000000          1
H        14.55595876      11.17647024      10.10981957         0.00000000       0.00000000       0.00000000          1
H        10.42297153       7.75413790      12.77455128         0.00000000       0.00000000       0.00000000          1
H         7.90623739       4.38089690      10.61811381         0.00000000       0.00000000       0.00000000          1
H         3.98100031      14.09938024      11.98036502         0.00000000       0.00000000       0.00000000          1
H        10.18337512       3.67412244       1.53712482         0.00000000       0.00000000       0.00000000          1
6
pbc=[F, F, F] list_num_par=6 frozen=false iter=79 energy=-0.02620258 Lattice="15.00000000 0.00000000 0.00000000 0.00000000 15.00000000 0.00000000 0.00000000 0.00000000 15.00000000" energy_frozen_part=0.00000000 Properties=species:S:1:pos:R:3:velocities:R:3:Z:I:1
H        10.57749686      13.89995208       7.35215898         0.00000000       0.00000000       0.00000000          1
H         8.09243782      10.25476399       1.74979227         0.00000000       0.00000000       0.00000000          1
H         4.84155903      14.77130814       8.36827358         0.00000000       0.00000000       0.00000000          1
H        13.77187454      13.84563948       2.22645647         0.00000000       0.00000000       0.00000000          1
H        11.48496357       9.86911703       6.42150936         0.00000000       0.00000000       0.00000000          1
H         2.01378106       0.18734155       0.86508423         0.00000000       0.00000000       0.00000000          1
6
pbc=[F, F, F] list_num_par=6 frozen=false iter=89 energy=-0.03116229 Lattice="15.00000000 0.00000000 0.00000000 0.00000000 15.00000000 0.00000000 0.00000000 0.00000000 15.00000000" energy_frozen_part=0.00000000 Properties=species:S:1:pos:R:3:velocities:R:3:Z:I:1
H         4.15440419       2.26055452       2.99162146         0.00000000       0.00000000       0.00000000          1
H        10.10567125       8.34299721      13.37193617         0.00000000       0.00000000       0.00000000          1
H        13.68399218      10.61393803      11.03895231         0.00000000       0.00000000       0.00000000          1
H        12.40129486       3.13067901       9.80840383         0.00000000       0.00000000       0.00000000          1
H         1.58113336       4.80964938      12.09685770         0.00000000       0.00000000       0.00000000          1
H        12.62188298       3.51860818       5.82775854         0.00000000       0.00000000       0.00000000          1
6
pbc=[F, F, F] list_num_par=6 frozen=false iter=99 energy=-0.03564966 Lattice="15.00000000 0.00000000 0.00000000 0.00000000 15.00000000 0.00000000 0.00000000 0.00000000 15.00000000" energy_frozen_part=0.00000000 Properties=species:S:1:pos:R:3:velocities:R:3:Z:I:1
H        11.30516520      10.62018398      13.97992372         0.00000000       0.00000000       0.00000000          1
H         0.02464267      14.98872814       5.80209723         0.00000000       0.00000000       0.00000000          1
H        14.05870125       7.39089125      11.20433315         0.00000000       0.00000000       0.00000000          1
H         1.53567188       5.65419699      10.79624677         0.00000000       0.00000000       0.00000000          1
H         7.84394889       2.46337213      10.48989360         0.00000000       0.00000000       0.00000000          1
H         1.93191771       8.87159933       8.74954678         0.00000000       0.00000000       0.00000000          1
6
pbc=[F, F, F] list_num_par=6 frozen=false iter=109 energy=-0.04141790 Lattice="15.00000000 0.00000000 0.00000000 0.00000000 15.00000000 0.00000000 0.00000000 0.00000000 15.00000000" energy_frozen_part=0.00000000 Properties=species:S:1:pos:R:3:velocities:R:3:Z:I:1
H         2.22783973       1.03675648      14.03891541         0.00000000       0.00000000       0.00000000          1
H        10.44480373      11.65770951      10.62149432         0.00000000       0.00000000       0.00000000          1
H        12.14019754      12.56093212       3.60730176         0.00000000       0.00000000       0.00000000          1
H         9.85472983       0.16831836      14.10314278         0.00000000       0.00000000       0.00000000          1
H         3.04916873       5.59375316       8.98253033         0.00000000       0.00000000       0.00000000          1
H         4.23807187       8.92844412       9.72851376         0.00000000       0.00000000       0.00000000          1
6
pbc=[F, F, F] list_num_par=6 frozen=false iter=119 energy=-0.04731637 Lattice="15.00000000 0.00000000 0.00000000 0.00000000 15.00000000 0.00000000 0.00000000 0.00000000 15.00000000" energy_frozen_part=0.00000000 Properties=species:S:1:pos:R:3:velocities:R:3:Z:I:1
H         4.41745172       2.89976789       4.02900212         0.00000000       0.00000000       0.00000000          1
H        10.70194393      13.06236247       1.30879518         0.00000000       0.00000000       0.00000000          1
H        12.06977471       8.87360085      12.88881879         0.00000000       0.00000000       0.00000000          1
H         1.77778466       0.70284027       9.03021871         0.00000000       0.00000000       0.00000000          1
H         8.22979703       4.98551287       2.54622012         0.00000000       0.00000000       0.00000000          1
H        11.58348865      13.25678000       4.88094979         0.00000000       0.00000000       0.00000000          1
6
pbc=[F, F, F] list_num_par=6 frozen=false iter=129 energy=-0.05399748 Lattice="15.00000000 0.00000000 0.00000000 0.00000000 15.00000000 0.00000000 0.00000000 0.00000000 15.00000000" energy_frozen_part=0.00000000 Properties=species:S:1:pos:R:3:velocities:R:3:Z:I:1
H        11.51157236       2.16028801      10.35740390         0.00000000       0.00000000       0.00000000          1
H        13.65926813       0.06543222       1.23758334         0.00000000       0.00000000       0.00000000          1
H         8.07231151      11.66963666       3.06326572         0.00000000       0.00000000       0.00000000          1
H         7.09998614      12.14275547       6.67788097         0.00000000       0.00000000       0.00000000          1
H        10.52905286      13.10334187       8.98490384         0.00000000       0.00000000       0.00000000          1
H         7.85451445       8.76969367      11.32434864         0.00000000       0.00000000       0.00000000          1
6
pbc=[F, F, F] list_num_par=6 frozen=false iter=139 energy=-0.05727190 Lattice="15.00000000 0.00000000 0.00000000 0.00000000 15.00000000 0.00000000 0.00000000 0.00000000 15.00000000" energy_frozen_part=0.00000000 Properties=species:S:1:pos:R:3:velocities:R:3:Z:I:1
H         7.65555135       8.35493735      14.76390307         0.00000000       0.00000000       0.00000000          1
H         2.80595725      12.68928296       9.25676267         0.00000000       0.00000000       0.00000000          1
H         5.31618899       2.44359865       9.85189013         0.00000000       0.00000000       0.00000000          1
H         1.43285807       6.34871000       0.26957794         0.00000000       0.00000000       0.00000000          1
H         8.24131623       0.48974289       6.60098332         0.00000000       0.00000000       0.00000000          1
H         7.52078681       5.89401249      12.13885356         0.00000000       0.00000000       0.00000000          1
6
pbc=[F, F, F] list_num_par=6 frozen=false iter=149 energy=-0.06444145 Lattice="15.00000000 0.00000000 0.00000000 0.00000000 15.00000000 0.00000000 0.00000000 0.00000000 15.00000000" energy_frozen_part=0.00000000 Properties=species:S:1:pos:R:3:velocities:R:3:Z:I:1
H         7.26150962      10.42123704       1.71046301         0.00000000       0.00000000       0.00000000          1
H         1.90163982       2.51188951      11.24596592         0.00000000       0.00000000       0.00000000          1
H         8.14875377       1.64130266       5.99884428         0.00000000       0.00000000       0.00000000          1
H         8.48596779       8.16720971       2.03324651         0.00000000       0.00000000       0.00000000          1
H         5.95482127      10.37980974       8.66617511         0.00000000       0.00000000       0.00000000          1
H        10.49729935       8.45966252      11.42864983         0.00000000       0.00000000       0.00000000          1
6
pbc=[F, F, F] list_num_par=6 frozen=false iter=159 energy=-0.06901215 Lattice="15.00000000 0.00000000 0.00000000 0.00000000 15.00000000 0.00000000 0.00000000 0.00000000 15.00000000" energy_frozen_part=0.00000000 Properties=species:S:1:pos:R:3:velocities:R:3:Z:I:1
H        14.59068816       4.16321294       9.49211609         0.00000000       0.00000000       0.00000000          1
H         0.18349821       8.51568965      13.30500723         0.00000000       0.00000000       0.00000000          1
H         6.07962226       9.60262558      14.07590465         0.00000000       0.00000000       0.00000000          1
H        14.89616069       4.36909185       6.21285248         0.00000000       0.00000000       0.00000000          1
H         4.06878351      12.75958706       2.28525577         0.00000000       0.00000000       0.00000000          1
H         7.00476609       8.68127953       2.24739458         0.00000000       0.00000000       0.00000000          1
6
pbc=[F, F, F] list_num_par=6 frozen=false iter=169 energy=-0.07477154 Lattice="15.00000000 0.00000000 0.00000000 0.00000000 15.00000000 0.00000000 0.00000000 0.00000000 15.00000000" energy_frozen_part=0.00000000 Properties=species:S:1:pos:R:3:velocities:R:3:Z:I:1
H         3.93293381       3.31283056      13.34264887         0.00000000       0.00000000       0.00000000          1
H         6.40597385      12.18940222       4.48206320         0.00000000       0.00000000       0.00000000          1
H         6.76155651       6.27198145      13.47369194         0.00000000       0.00000000       0.00000000          1
H        14.03553062       1.34703666       0.94483524         0.00000000       0.00000000       0.00000000          1
H        10.05027437       4.87779261       3.86811502         0.00000000       0.00000000       0.00000000          1
H         7.42983731       4.21803787       1.78993408         0.00000000       0.00000000       0.00000000          1
6
pbc=[F, F, F] list_num_par=6 frozen=false iter=179 energy=-0.08044972 Lattice="15.00000000 0.00000000 0.00000000 0.00000000 15.00000000 0.00000000 0.00000000 0.00000000 15.00000000" energy_frozen_part=0.00000000 Properties=species:S:1:pos:R:3:velocities:R:3:Z:I:1
H         0.61641922       0.09699914       4.12694475         0.00000000       0.00000000       0.00000000          1
H         8.27856526       5.86484922       3.65803446         0.00000000       0.00000000       0.00000000          1
H         9.95425838      10.78385206      10.16635379         0.00000000       0.00000000       0.00000000          1
H         2.77327847       9.89451630       0.11451368         0.00000000       0.00000000       0.00000000          1
H         5.27041878      14.15590393       5.20727586         0.00000000       0.00000000       0.00000000          1
H        10.59881488       8.95242731      12.59635587         0.00000000       0.00000000       0.00000000          1
6
pbc=[F, F, F] list_num_par=6 frozen=false iter=189 energy=-0.08827425 Lattice="15.00000000 0.00000000 0.00000000 0.00000000 15.00000000 0.00000000 0.00000000 0.00000000 15.00000000" energy_frozen_part=0.00000000 Properties=species:S:1:pos:R:3:velocities:R:3:Z:I:1
H         7.37128436      12.66992199      11.64746054         0.00000000       0.00000000       0.00000000          1
H         0.09856444      13.59774750       9.10234282         0.00000000       0.00000000       0.00000000          1
H        12.03198715       7.21223756       7.59599333         0.00000000       0.00000000       0.00000000          1
H         7.87123768       5.63588957       2.60530012         0.00000000       0.00000000       0.00000000          1
H         6.72898211       3.54171145       4.48668701         0.00000000       0.00000000       0.00000000          1
H         0.26800167       7.84033393      13.88856143         0.00000000       0.00000000       0.00000000          1
6
pbc=[F, F, F] list_num_par=6 frozen=false iter=199 energy=-0.09333725 Lattice="15.00000000 0.00000000 0.00000000 0.00000000 15.00000000 0.00000000 0.00000000 0.00000000 15.00000000" energy_frozen_part=0.00000000 Properties=species:S:1:pos:R:3:velocities:R:3:Z:I:1
H         6.84479675       3.23206683       6.40313051         0.00000000       0.00000000       0.00000000          1
H         7.89318845       9.74664331      10.24960115         0.00000000       0.00000000       0.00000000          1
H         8.59026682       2.33173411       7.94931101         0.00000000       0.00000000       0.00000000          1
H         3.45712635       3.47663196       3.17132806         0.00000000       0.00000000       0.00000000          1
H         4.94404942       8.52494038      10.34443908         0.00000000       0.00000000       0.00000000          1
H         7.50247706       7.83392623      14.79887774         0.00000000       0.00000000       0.00000000          1
6
pbc=[F, F, F] list_num_par=6 frozen=false iter=209 energy=-0.09829675 Lattice="15.00000000 0.00000000 0.00000000 0.00000000 15.00000000 0.00000000 0.00000000 0.00000000 15.00000000" energy_frozen_part=0.00000000 Properties=species:S:1:pos:R:3:velocities:R:3:Z:I:1
H         3.29695861       8.09769031       5.40670201         0.00000000       0.00000000       0.00000000          1
H         5.07977876      14.38866440      14.17407260         0.00000000       0.00000000       0.00000000          1
H        10.33097805      10.16099399      10.78521594         0.00000000       0.00000000       0.00000000          1
H        11.55119841       5.16266453       2.68857995         0.00000000       0.00000000       0.00000000          1
H        10.13164952       3.42229055       1.24353162         0.00000000       0.00000000       0.00000000          1
H         4.65965001       3.88790980       3.25395171         0.00000000       0.00000000       0.00000000          1
6
pbc=[F, F, F] list_num_par=6 frozen=false iter=219 energy=-0.10205516 Lattice="15.00000000 0.00000000 0.00000000 0.00000000 15.00000000 0.00000000 0.00000000 0.00000000 15.00000000" energy_frozen_part=0.00000000 Properties=species:S:1:pos:R:3:velocities:R:3:Z:I:1
H         6.15411082       7.05879470       2.53019763         0.00000000       0.00000000       0.00000000          1
H         8.97501643      13.12164173       2.13389488         0.00000000       0.00000000       0.00000000          1
H        12.62120937       7.59935872       8.03389146         0.00000000       0.00000000       0.00000000          1
H         1.99339015       6.04971082       9.70158801         0.00000000       0.00000000       0.00000000          1
H        11.48859074       6.13834721       6.07011285         0.00000000       0.00000000       0.00000000          1
H         3.34517076      10.64911503       0.20645358         0.00000000       0.00000000       0.00000000          1
6
pbc=[F, F, F] list_num_par=6 frozen=false iter=229 energy=-0.10359760 Lattice="15.00000000 0.00000000 0.00000000 0.00000000 15.00000000 0.00000000 0.00000000 0.00000000 15.00000000" energy_frozen_part=0.00000000 Properties=species:S:1:pos:R:3:velocities:R:3:Z:I:1
H         8.61937884       9.69692935       1.44376118         0.00000000       0.00000000       0.00000000          1
H        11.39878415       1.34995430       8.07607318         0.00000000       0.00000000       0.00000000          1
H         8.36560352       7.09131496       2.48329524         0.00000000       0.00000000       0.00000000          1
H         5.49767550      14.87515195       2.27810421         0.00000000       0.00000000       0.00000000          1
H         4.22293032      11.19064330      12.54302607         0.00000000       0.00000000       0.00000000          1
H        12.71631984       4.31914730      13.35758370         0.00000000       0.00000000       0.00000000          1
6
pbc=[F, F, F] list_num_par=6 frozen=false iter=239 energy=-0.10641697 Lattice="15.00000000 0.00000000 0.00000000 0.00000000 15.00000000 0.00000000 0.00000000 0.00000000 15.00000000" energy_frozen_part=0.00000000 Properties=species:S:1:pos:R:3:velocities:R:3:Z:I:1
H        10.56734113      11.50997482       7.71301548         0.00000000       0.00000000       0.00000000          1
H        12.39933509       8.05977821      12.55668752         0.00000000       0.00000000       0.00000000          1
H        13.74916037      13.89038879      11.44105865         0.00000000       0.00000000       0.00000000          1
H         5.17313300       6.71016730       0.40485435         0.00000000       0.00000000       0.00000000          1
H         1.34083838       6.64998383       5.87619908         0.00000000       0.00000000       0.00000000          1
H        13.16963708       5.98842371      14.39206551         0.00000000       0.00000000       0.00000000          1
6
pbc=[F, F, F] list_num_par=6 frozen=false iter=249 energy=-0.10849754 Lattice="15.00000000 0.00000000 0.00000000 0.00000000 15.00000000 0.00000000 0.00000000 0.00000000 15.00000000" energy_frozen_part=0.00000000 Properties=species:S:1:pos:R:3:velocities:R:3:Z:I:1
H        12.10714164       1.58041780       1.49764567         0.00000000       0.00000000       0.00000000          1
H         5.87599722      11.77066076       2.14298392         0.00000000       0.00000000       0.00000000          1
H         0.15701067       8.96411107      12.73223667         0.00000000       0.00000000       0.00000000          1
H         7.49631916       5.12395682       8.34034893         0.00000000       0.00000000       0.00000000          1
H         7.33525315       7.22945343       6.38700440         0.00000000       0.00000000       0.00000000          1
H        13.72510460       2.35010237       5.91977909         0.00000000       0.00000000       0.00000000          1
6
pbc=[F, F, F] list_num_par=6 frozen=false iter=259 energy=-0.11136461 Lattice="15.00000000 0.00000000 0.00000000 0.00000000 15.00000000 0.00000000 0.00000000 0.00000000 15.00000000" energy_frozen_part=0.00000000 Properties=species:S:1:pos:R:3:velocities:R:3:Z:I:1
H        10.70695351      13.65848124       9.13859587         0.00000000       0.00000000       0.00000000          1
H        12.47900551       5.82415682       0.85036657         0.00000000       0.00000000       0.00000000          1
H        10.24634587       4.04317118       4.46037668         0.00000000       0.00000000       0.00000000          1
H         0.44912475      11.89441033      14.96523176         0.00000000       0.00000000       0.00000000          1
H         9.70569287       2.72016541       7.10705752         0.00000000       0.00000000       0.00000000          1
H         3.17356341      11.67501754      11.48500000         0.00000000       0.00000000       0.00000000          1
6
pbc=[F, F, F] list_num_par=6 frozen=false iter=269 energy=-0.11415278 Lattice="15.00000000 0.00000000 0.00000000 0.00000000 15.00000000 0.00000000 0.00000000 0.00000000 15.00000000" energy_frozen_part=0.00000000 Properties=species:S:1:pos:R:3:velocities:R:3:Z:I:1
H         7.42800303       5.03160819       2.22977088         0.00000000       0.00000000       0.00000000          1
H        13.56595252       6.67611274      10.32114232         0.00000000       0.00000000       0.00000000          1
H         4.04212527       7.25435939      12.92981253         0.00000000       0.00000000       0.00000000          1
H         0.25251264       3.19887079       9.70831572         0.00000000       0.00000000       0.00000000          1
H         4.97579048       5.33317455       0.14566259         0.00000000       0.00000000       0.00000000          1
H         1.91613694      10.04315837      12.76663966         0.00000000       0.00000000       0.00000000          1
6
pbc=[F, F, F] list_num_par=6 frozen=false iter=279 energy=-0.11629555 Lattice="15.00000000 0.00000000 0.00000000 0.00000000 15.00000000 0.00000000 0.00000000 0.00000000 15.00000000" energy_frozen_part=0.00000000 Properties=species:S:1:pos:R:3:velocities:R:3:Z:I:1
H        13.83576277      10.21179633      13.33642419         0.00000000       0.00000000       0.00000000          1
H         1.10773864      10.18477812       2.40173456         0.00000000       0.00000000       0.00000000          1
H         5.13139650       2.13595896       4.48870867         0.00000000       0.00000000       0.00000000          1
H         3.70355365      10.02850415       1.88883676         0.00000000       0.00000000       0.00000000          1
H         1.27156225       2.12457614       5.07550215         0.00000000       0.00000000       0.00000000          1
H        13.80490119      12.76972450       9.17504577         0.00000000       0.00000000       0.00000000          1
6
pbc=[F, F, F] list_num_par=6 frozen=false iter=289 energy=-0.11843488 Lattice="15.00000000 0.00000000 0.00000000 0.00000000 15.00000000 0.00000000 0.00000000 0.00000000 15.00000000" energy_frozen_part=0.00000000 Properties=species:S:1:pos:R:3:velocities:R:3:Z:I:1
H         0.59011345      12.47840472       8.91868044         0.00000000       0.00000000       0.00000000          1
H         3.80237948       9.31178426      11.60124139         0.00000000       0.00000000       0.00000000          1
H         1.14404523       5.00554402       3.12541860         0.00000000       0.00000000       0.00000000          1
H         1.74541334      14.89942360       3.22177457         0.00000000       0.00000000       0.00000000          1
H         5.81217181       8.02678073      13.79040521         0.00000000       0.00000000       0.00000000          1
H         2.72258997      14.12272762      11.34857436         0.00000000       0.00000000       0.00000000          1
6
pbc=[F, F, F] list_num_par=6 frozen=false iter=299 energy=-0.12336402 Lattice="15.00000000 0.00000000 0.00000000 0.00000000 15.00000000 0.00000000 0.00000000 0.00000000 15.00000000" energy_frozen_part=0.00000000 Properties=species:S:1:pos:R:3:velocities:R:3:Z:I:1
H         2.49730250       1.16763286       2.98307280         0.00000000       0.00000000       0.00000000          1
H         4.98111019      14.45080422       6.51467630         0.00000000       0.00000000       0.00000000          1
H        10.63064739       2.22665734       3.45087252         0.00000000       0.00000000       0.00000000          1
H        10.27267326       6.70307301       1.44269957         0.00000000       0.00000000       0.00000000          1
H        11.25780418       6.16530901       3.88426293         0.00000000       0.00000000       0.00000000          1
H         6.90068736       0.06127512       7.61874999         0.00000000       0.00000000       0.00000000          1
6
pbc=[F, F, F] list_num_par=6 frozen=false iter=309 energy=-0.12688239 Lattice="15.00000000 0.00000000 0.00000000 0.00000000 15.00000000 0.00000000 0.00000000 0.00000000 15.00000000" energy_frozen_part=0.00000000 Properties=species:S:1:pos:R:3:velocities:R:3:Z:I:1
H        12.65958799       6.24486173      12.83395458         0.00000000       0.00000000       0.00000000          1
H        11.29859201       9.33082678       4.66000025         0.00000000       0.00000000       0.00000000          1