6
pbc=[F, F, F] list_num_par=6 frozen=false iter=20000 energy=-1.26974174 Lattice="15.00000000 0.00000000 0.00000000 0.00000000 15.00000000 0.00000000 0.00000000 0.00000000 15.00000000" energy_frozen_part=0.00000000 Properties=species:S:1:pos:R:3:velocities:R:3:Z:I:1
H         5.28144128       9.90744097       3.93751971         0.00000000       0.00000000       0.00000000          1
H         5.03636834      11.40561550       1.59237723         0.00000000       0.00000000       0.00000000          1
H         2.85257770      11.13877732       3.31404740         0.00000000       0.00000000       0.00000000          1
H         2.83949835       9.85634141       0.83221636         0.00000000       0.00000000       0.00000000          1
H         3.08457827       8.35816973       3.17736158         0.00000000       0.00000000       0.00000000          1
H         5.26836356       8.62500865       1.45568845         0.00000000       0.00000000       0.00000000          1
6
pbc=[F, F, F] list_num_par=6 frozen=false iter=20000 energy=-1.26974174 Lattice="15.00000000 0.00000000 0.00000000 0.00000000 15.00000000 0.00000000 0.00000000 0.00000000 15.00000000" energy_frozen_part=0.00000000 Properties=species:S:1:pos:R:3:velocities:R:3:Z:I:1
H         5.28247781       9.90799766       3.93566799         0.00000000       0.00000000       0.00000000          1
H         5.03722341      11.40606487       1.59047443         0.00000000       0.00000000       0.00000000          1
H         2.85425790      11.14125198       3.31350392         0.00000000       0.00000000       0.00000000          1
H         2.83862204       9.85850647       0.83185486         0.00000000       0.00000000       0.00000000          1
H         3.08388424       8.36043609       3.17704055         0.00000000       0.00000000       0.00000000          1
H         5.26685307       8.62525232       1.45401500         0.00000000       0.00000000       0.00000000          1
6
pbc=[F, F, F] list_num_par=6 frozen=false iter=20000 energy=-1.26974174 Lattice="15.00000000 0.00000000 0.00000000 0.00000000 15.00000000 0.00000000 0.00000000 0.00000000 15.00000000" energy_frozen_part=0.00000000 Properties=species:S:1:pos:R:3:velocities:R:3:Z:I:1
H         5.28173613       9.92219762       3.94688243         0.00000000       0.00000000       0.00000000          1
H         5.04100664      11.40777140       1.59328766         0.00000000       0.00000000       0.00000000          1
H         2.85403685      11.15016047       3.31232715         0.00000000       0.00000000       0.00000000          1
H         2.84555276       9.85443543       0.83739078         0.00000000       0.00000000       0.00000000          1
H         3.08628291       8.36885893       3.19098503         0.00000000       0.00000000       0.00000000          1
H         5.27325244       8.62647011       1.47194671         0.00000000       0.00000000       0.00000000          1
6
pbc=[F, F, F] list_num_par=6 frozen=false iter=20000 energy=-1.26974174 Lattice="15.00000000 0.00000000 0.00000000 0.00000000 15.00000000 0.00000000 0.00000000 0.00000000 15.00000000" energy_frozen_part=0.00000000 Properties=species:S:1:pos:R:3:velocities:R:3:Z:I:1
H         5.28204603       9.90808945       3.93706139         0.00000000       0.00000000       0.00000000          1
H         5.03760025      11.40587156       1.59160078         0.00000000       0.00000000       0.00000000          1
H         2.85385200      11.14073660       3.31358368         0.00000000       0.00000000       0.00000000          1
H         2.83972002       9.85774835       0.83204590         0.00000000       0.00000000       0.00000000          1
H         3.08416580       8.35996286       3.17750306         0.00000000       0.00000000       0.00000000          1
H         5.26791712       8.62510182       1.45552499         0.00000000       0.00000000       0.00000000          1
6
pbc=[F, F, F] list_num_par=6 frozen=false iter=20000 energy=-1.26974174 Lattice="15.00000000 0.00000000 0.00000000 0.00000000 15.00000000 0.00000000 0.00000000 0.00000000 15.00000000" energy_frozen_part=0.00000000 Properties=species:S:1:pos:R:3:velocities:R:3:Z:I:1
H         5.28171690       9.92218953       3.94688637         0.00000000       0.00000000       0.00000000          1
H         5.04099937      11.40776293       1.59329172         0.00000000       0.00000000       0.00000000          1
H         2.85402059      11.15014441       3.31231391         0.00000000       0.00000000       0.00000000          1
H         2.84554266       9.85442323       0.83737676         0.00000000       0.00000000       0.00000000          1
H         3.08626379       8.36884849       3.19097179         0.00000000       0.00000000       0.00000000          1
H         5.27323896       8.62646169       1.47195413         0.00000000       0.00000000       0.00000000          1
6
pbc=[F, F, F] list_num_par=6 frozen=false iter=20000 energy=-1.26974174 Lattice="15.00000000 0.00000000 0.00000000 0.00000000 15.00000000 0.00000000 0.00000000 0.00000000 15.00000000" energy_frozen_part=0.00000000 Properties=species:S:1:pos:R:3:velocities:R:3:Z:I:1
H         5.28156952       9.90751171       3.93746336         0.00000000       0.00000000       0.00000000          1
H         5.03639458      11.40560110       1.59227108         0.00000000       0.00000000       0.00000000          1
H         2.85268640      11.13883172       3.31404609         0.00000000       0.00000000       0.00000000          1
H         2.83949523       9.85630156       0.83227058         0.00000000       0.00000000       0.00000000          1
H         3.08466867       8.35821610       3.17745796         0.00000000       0.00000000       0.00000000          1
H         5.26838370       8.62498533       1.45568415         0.00000000       0.00000000       0.00000000          1
6
pbc=[F, F, F] list_num_par=6 frozen=false iter=20000 energy=-1.26974174 Lattice="15.00000000 0.00000000 0.00000000 0.00000000 15.00000000 0.00000000 0.00000000 0.00000000 15.00000000" energy_frozen_part=0.00000000 Properties=species:S:1:pos:R:3:velocities:R:3:Z:I:1
H         5.28201880       9.90810323       3.93704413         0.00000000       0.00000000       0.00000000          1
H         5.03759046      11.40591471       1.59160034         0.00000000       0.00000000       0.00000000          1
H         2.85380943      11.14072298       3.31353665         0.00000000       0.00000000       0.00000000          1
H         2.83974884       9.85776537       0.83198443         0.00000000       0.00000000       0.00000000          1
H         3.08417819       8.35995108       3.17743168         0.00000000       0.00000000       0.00000000          1
H         5.26794985       8.62514294       1.45549271         0.00000000       0.00000000       0.00000000          1
6
pbc=[F, F, F] list_num_par=6 frozen=false iter=20000 energy=-1.26974174 Lattice="15.00000000 0.00000000 0.00000000 0.00000000 15.00000000 0.00000000 0.00000000 0.00000000 15.00000000" energy_frozen_part=0.00000000 Properties=species:S:1:pos:R:3:velocities:R:3:Z:I:1
H         5.28245451       9.90792034       3.93575375         0.00000000       0.00000000       0.00000000          1
H         5.03725393      11.40601031       1.59057121         0.00000000       0.00000000       0.00000000          1
H         2.85427071      11.14124745       3.31358679         0.00000000       0.00000000       0.00000000          1
H         2.83861806       9.85850872       0.83192862         0.00000000       0.00000000       0.00000000          1
H         3.08381857       8.36042408       3.17711406         0.00000000       0.00000000       0.00000000          1
H         5.26680222       8.62518335       1.45409910         0.00000000       0.00000000       0.00000000          1
6
pbc=[F, F, F] list_num_par=6 frozen=false iter=20000 energy=-1.26974174 Lattice="15.00000000 0.00000000 0.00000000 0.00000000 15.00000000 0.00000000 0.00000000 0.00000000 15.00000000" energy_frozen_part=0.00000000 Properties=species:S:1:pos:R:3:velocities:R:3:Z:I:1
H         5.28198858       9.90727598       3.93721535         0.00000000       0.00000000       0.00000000          1
H         5.03668404      11.40538602       1.59205914         0.00000000       0.00000000       0.00000000          1
H         2.85315256      11.13885557       3.31410146         0.00000000       0.00000000       0.00000000          1
H         2.83952728       9.85632870       0.83231929         0.00000000       0.00000000       0.00000000          1
H         3.08483374       8.35822098       3.17748092         0.00000000       0.00000000       0.00000000          1
H         5.26836407       8.62474955       1.45543686         0.00000000       0.00000000       0.00000000          1
6
pbc=[F, F, F] list_num_par=6 frozen=false iter=20000 energy=-1.26974174 Lattice="15.00000000 0.00000000 0.00000000 0.00000000 15.00000000 0.00000000 0.00000000 0.00000000 15.00000000" energy_frozen_part=0.00000000 Properties=species:S:1:pos:R:3:velocities:R:3:Z:I:1
H         5.28157698       9.90748570       3.93747628         0.00000000       0.00000000       0.00000000          1
H         5.03642883      11.40558309       1.59229696         0.00000000       0.00000000       0.00000000          1
H         2.85269937      11.13882648       3.31405656         0.00000000       0.00000000       0.00000000          1
H         2.83951709       9.85631814       0.83226858         0.00000000       0.00000000       0.00000000          1
H         3.08467300       8.35821171       3.17744943         0.00000000       0.00000000       0.00000000          1
H         5.26839230       8.62497265       1.45568743         0.00000000       0.00000000       0.00000000          1
6
pbc=[F, F, F] list_num_par=6 frozen=false iter=20000 energy=-1.26974174 Lattice="15.00000000 0.00000000 0.00000000 0.00000000 15.00000000 0.00000000 0.00000000 0.00000000 15.00000000" energy_frozen_part=0.00000000 Properties=species:S:1:pos:R:3:velocities:R:3:Z:I:1
H         5.28203184       9.90810627       3.93702310         0.00000000       0.00000000       0.00000000          1
H         5.03759281      11.40591678       1.59158352         0.00000000       0.00000000       0.00000000          1
H         2.85382935      11.14073819       3.31353978         0.00000000       0.00000000       0.00000000          1
H         2.83973939       9.85777111       0.83199498         0.00000000       0.00000000       0.00000000          1
H         3.08418594       8.35996073       3.17743581         0.00000000       0.00000000       0.00000000          1
H         5.26794497       8.62514579       1.45546948         0.00000000       0.00000000       0.00000000          1
6
pbc=[F, F, F] list_num_par=6 frozen=false iter=20000 energy=-1.26974174 Lattice="15.00000000 0.00000000 0.00000000 0.00000000 15.00000000 0.00000000 0.00000000 0.00000000 15.00000000" energy_frozen_part=0.00000000 Properties=species:S:1:pos:R:3:velocities:R:3:Z:I:1
H         5.28153244       9.90748114       3.93745438         0.00000000       0.00000000       0.00000000          1
H         5.03632197      11.40564028       1.59231575         0.00000000       0.00000000       0.00000000          1
H         2.85261631      11.13875800       3.31409173         0.00000000       0.00000000       0.00000000          1
H         2.83945560       9.85631886       0.83226680         0.00000000       0.00000000       0.00000000          1
H         3.08467438       8.35815648       3.17739780         0.00000000       0.00000000       0.00000000          1
H         5.26837755       8.62503581       1.45562957         0.00000000       0.00000000       0.00000000          1
6
pbc=[F, F, F] list_num_par=6 frozen=false iter=20000 energy=-1.26974174 Lattice="15.00000000 0.00000000 0.00000000 0.00000000 15.00000000 0.00000000 0.00000000 0.00000000 15.00000000" energy_frozen_part=0.00000000 Properties=species:S:1:pos:R:3:velocities:R:3:Z:I:1
H         5.28199181       9.90724453       3.93721617         0.00000000       0.00000000       0.00000000          1
H         5.03667269      11.40540103       1.59208859         0.00000000       0.00000000       0.00000000          1
H         2.85315445      11.13883693       3.31413975         0.00000000       0.00000000       0.00000000          1
H         2.83951652       9.85635580       0.83233667         0.00000000       0.00000000       0.00000000          1
H         3.08483043       8.35819764       3.17746780         0.00000000       0.00000000       0.00000000          1
H         5.26834703       8.62476328       1.45541361         0.00000000       0.00000000       0.00000000          1
6
pbc=[F, F, F] list_num_par=6 frozen=false iter=20000 energy=-1.26974174 Lattice="15.00000000 0.00000000 0.00000000 0.00000000 15.00000000 0.00000000 0.00000000 0.00000000 15.00000000" energy_frozen_part=0.00000000 Properties=species:S:1:pos:R:3:velocities:R:3:Z:I:1
H         5.28153340       9.90747160       3.93746658         0.00000000       0.00000000       0.00000000          1
H         5.03632414      11.40563831       1.59233456         0.00000000       0.00000000       0.00000000          1
H         2.85261397      11.13875370       3.31410065         0.00000000       0.00000000       0.00000000          1
H         2.83946735       9.85631909       0.83226478         0.00000000       0.00000000       0.00000000          1
H         3.08467132       8.35815266       3.17740137         0.00000000       0.00000000       0.00000000          1
H         5.26838419       8.62504041       1.45563792         0.00000000       0.00000000       0.00000000          1
6
pbc=[F, F, F] list_num_par=6 frozen=false iter=20000 energy=-1.26974174 Lattice="15.00000000 0.00000000 0.00000000 0.00000000 15.00000000 0.00000000 0.00000000 0.00000000 15.00000000" energy_frozen_part=0.00000000 Properties=species:S:1:pos:R:3:velocities:R:3:Z:I:1
H         5.28198566       9.90730991       3.93723159         0.00000000       0.00000000       0.00000000          1
H         5.03668848      11.40537301       1.59204414         0.00000000       0.00000000       0.00000000          1
H         2.85315518      11.13887991       3.31409413         0.00000000       0.00000000       0.00000000          1
H         2.83953520       9.85630063       0.83233789         0.00000000       0.00000000       0.00000000          1
H         3.08482496       8.35823620       3.17752845         0.00000000       0.00000000       0.00000000          1
H         5.26836236       8.62473214       1.45547937         0.00000000       0.00000000       0.00000000          1
6
pbc=[F, F, F] list_num_par=6 frozen=false iter=20000 energy=-1.26974174 Lattice="15.00000000 0.00000000 0.00000000 0.00000000 15.00000000 0.00000000 0.00000000 0.00000000 15.00000000" energy_frozen_part=0.00000000 Properties=species:S:1:pos:R:3:velocities:R:3:Z:I:1
H         5.28197982       9.90727487       3.93722582         0.00000000       0.00000000       0.00000000          1
H         5.03668795      11.40539335       1.59207268         0.00000000       0.00000000       0.00000000          1
H         2.85314743      11.13884485       3.31410207         0.00000000       0.00000000       0.00000000          1
H         2.83953734       9.85633265       0.83231795         0.00000000       0.00000000       0.00000000          1
H         3.08482464       8.35821061       3.17747640         0.00000000       0.00000000       0.00000000          1
H         5.26836758       8.62475822       1.45544816         0.00000000       0.00000000       0.00000000          1
6
pbc=[F, F, F] list_num_par=6 frozen=false iter=20000 energy=-1.26974174 Lattice="15.00000000 0.00000000 0.00000000 0.00000000 15.00000000 0.00000000 0.00000000 0.00000000 15.00000000" energy_frozen_part=0.00000000 Properties=species:S:1:pos:R:3:velocities:R:3:Z:I:1
H         5.28202807       9.90810685       3.93703164         0.00000000       0.00000000       0.00000000          1
H         5.03758326      11.40592656       1.59159708         0.00000000       0.00000000       0.00000000          1
H         2.85381331      11.14072796       3.31354805         0.00000000       0.00000000       0.00000000          1
H         2.83974461       9.85777612       0.83199340         0.00000000       0.00000000       0.00000000          1
H         3.08418134       8.35995784       3.17743032         0.00000000       0.00000000       0.00000000          1
H         5.26794916       8.62515312       1.45547423         0.00000000       0.00000000       0.00000000          1
6
pbc=[F, F, F] list_num_par=6 frozen=false iter=20000 energy=-1.26974174 Lattice="15.00000000 0.00000000 0.00000000 0.00000000 15.00000000 0.00000000 0.00000000 0.00000000 15.00000000" energy_frozen_part=0.00000000 Properties=species:S:1:pos:R:3:velocities:R:3:Z:I:1
H         5.28244419       9.90795508       3.93575279         0.00000000       0.00000000       0.00000000          1
H         5.03723401      11.40603793       1.59056620         0.00000000       0.00000000       0.00000000          1
H         2.85424501      11.14124698       3.31356433         0.00000000       0.00000000       0.00000000          1
H         2.83862520       9.85851478       0.83190498         0.00000000       0.00000000       0.00000000          1
H         3.08384047       8.36042665       3.17708973         0.00000000       0.00000000       0.00000000          1
H         5.26683282       8.62521987       1.45409455         0.00000000       0.00000000       0.00000000          1
6
pbc=[F, F, F] list_num_par=6 frozen=false iter=20000 energy=-1.26974174 Lattice="15.00000000 0.00000000 0.00000000 0.00000000 15.00000000 0.00000000 0.00000000 0.00000000 15.00000000" energy_frozen_part=0.00000000 Properties=species:S:1:pos:R:3:velocities:R:3:Z:I:1
H         5.28245451       9.90792034       3.93575375         0.00000000       0.00000000       0.00000000          1
H         5.03725092      11.40600134       1.59056731         0.00000000       0.00000000       0.00000000          1
H         2.85426781      11.14125053       3.31358674         0.00000000       0.00000000       0.00000000          1
H         2.83860692       9.85850822       0.83193015         0.00000000       0.00000000       0.00000000          1
H         3.08381857       8.36042408       3.17711406         0.00000000       0.00000000       0.00000000          1
H         5.26679540       8.62517851       1.45409938         0.00000000       0.00000000       0.00000000          1
6
pbc=[F, F, F] list_num_par=6 frozen=false iter=20000 energy=-1.26974174 Lattice="15.00000000 0.00000000 0.00000000 0.00000000 15.00000000 0.00000000 0.00000000 0.00000000 15.00000000" energy_frozen_part=0.00000000 Properties=species:S:1:pos:R:3:velocities:R:3:Z:I:1
H         5.28200293       9.90722682       3.93721142         0.00000000       0.00000000       0.00000000          1
H         5.03668524      11.40539171       1.59208489         0.00000000       0.00000000       0.00000000          1
H         2.85316983      11.13884085       3.31414482         0.00000000       0.00000000       0.00000000          1
H         2.83951023       9.85636129       0.83234111         0.00000000       0.00000000       0.00000000          1
H         3.08482186       8.35820451       3.17746596         0.00000000       0.00000000       0.00000000          1
H         5.26834440       8.62475602       1.45540779         0.00000000       0.00000000       0.00000000          1
6
pbc=[F, F, F] list_num_par=6 frozen=false iter=20000 energy=-1.26974174 Lattice="15.00000000 0.00000000 0.00000000 0.00000000 15.00000000 0.00000000 0.00000000 0.00000000 15.00000000" energy_frozen_part=0.00000000 Properties=species:S:1:pos:R:3:velocities:R:3:Z:I:1
H         5.28158434       9.90748851       3.93747104         0.00000000       0.00000000       0.00000000          1
H         5.03642066      11.40558645       1.59228785         0.00000000       0.00000000       0.00000000          1
H         2.85270155      11.13882123       3.31406537         0.00000000       0.00000000       0.00000000          1
H         2.83950803       9.85630707       0.83227864         0.00000000       0.00000000       0.00000000          1
H         3.08467711       8.35820961       3.17745544         0.00000000       0.00000000       0.00000000          1
H         5.26839140       8.62497547       1.45568476         0.00000000       0.00000000       0.00000000          1
6
pbc=[F, F, F] list_num_par=6 frozen=false iter=20000 energy=-1.26974174 Lattice="15.00000000 0.00000000 0.00000000 0.00000000 15.00000000 0.00000000 0.00000000 0.00000000 15.00000000" energy_frozen_part=0.00000000 Properties=species:S:1:pos:R:3:velocities:R:3:Z:I:1
H         5.28171989       9.92219305       3.94689249         0.00000000       0.00000000       0.00000000          1
H         5.04101089      11.40776042       1.59328851         0.00000000       0.00000000       0.00000000          1
H         2.85402829      11.15014939       3.31230976         0.00000000       0.00000000       0.00000000          1
H         2.84555677       9.85441707       0.83737659         0.00000000       0.00000000       0.00000000          1
H         3.08626509       8.36884913       3.19097401         0.00000000       0.00000000       0.00000000          1
H         5.27324980       8.62646089       1.47196200         0.00000000       0.00000000       0.00000000          1
6
pbc=[F, F, F] list_num_par=6 frozen=false iter=20000 energy=-1.26974174 Lattice="15.00000000 0.00000000 0.00000000 0.00000000 15.00000000 0.00000000 0.00000000 0.00000000 15.00000000" energy_frozen_part=0.00000000 Properties=species:S:1:pos:R:3:velocities:R:3:Z:I:1
H         5.28198806       9.90720370       3.93722948         0.00000000       0.00000000       0.00000000          1
H         5.03670344      11.40537330       1.59209908         0.00000000       0.00000000       0.00000000          1
H         2.85316795      11.13881215       3.31413319         0.00000000       0.00000000       0.00000000          1
H         2.83954154       9.85633983       0.83232408         0.00000000       0.00000000       0.00000000          1
H         3.08482505       8.35817086       3.17744669         0.00000000       0.00000000       0.00000000          1
H         5.26836375       8.62473812       1.45541996         0.00000000       0.00000000       0.00000000          1
6
pbc=[F, F, F] list_num_par=6 frozen=false iter=20000 energy=-1.26974174 Lattice="15.00000000 0.00000000 0.00000000 0.00000000 15.00000000 0.00000000 0.00000000 0.00000000 15.00000000" energy_frozen_part=0.00000000 Properties=species:S:1:pos:R:3:velocities:R:3:Z:I:1
H         5.28196477       9.90730867       3.93723706         0.00000000       0.00000000       0.00000000          1
H         5.03668662      11.40537763       1.59204318         0.00000000       0.00000000       0.00000000          1
H         2.85313969      11.13888016       3.31407813         0.00000000       0.00000000       0.00000000          1
H         2.83953186       9.85630197       0.83232154         0.00000000       0.00000000       0.00000000          1
H         3.08481366       8.35823544       3.17751298         0.00000000       0.00000000       0.00000000          1
H         5.26835745       8.62473402       1.45548261         0.00000000       0.00000000       0.00000000          1
6
pbc=[F, F, F] list_num_par=6 frozen=false iter=20000 energy=-1.26974174 Lattice="15.00000000 0.00000000 0.00000000 0.00000000 15.00000000 0.00000000 0.00000000 0.00000000 15.00000000" energy_frozen_part=0.00000000 Properties=species:S:1:pos:R:3:velocities:R:3:Z:I:1
H         5.28173368       9.92218073       3.94688808         0.00000000       0.00000000       0.00000000          1
H         5.04101278      11.40775754       1.59329207         0.00000000       0.00000000       0.00000000          1
H         2.85404065      11.15015548       3.31232578         0.00000000       0.00000000       0.00000000          1
H         2.84554994       9.85442665       0.83738791         0.00000000       0.00000000       0.00000000          1
H         3.08627087       8.36885646       3.19098220         0.00000000       0.00000000       0.00000000          1
H         5.27324958       8.62645604       1.47194807         0.00000000       0.00000000       0.00000000          1
6
pbc=[F, F, F] list_num_par=6 frozen=false iter=20000 energy=-1.26974174 Lattice="15.00000000 0.00000000 0.00000000 0.00000000 15.00000000 0.00000000 0.00000000 0.00000000 15.00000000" energy_frozen_part=0.00000000 Properties=species:S:1:pos:R:3:velocities:R:3:Z:I:1
H         5.28199236       9.90731834       3.93723015         0.00000000       0.00000000       0.00000000          1
H         5.03669639      11.40537932       1.59203986         0.00000000       0.00000000       0.00000000          1
H         2.85316444      11.13888731       3.31408806         0.00000000       0.00000000       0.00000000          1
H         2.83953615       9.85630601       0.83233848         0.00000000       0.00000000       0.00000000          1
H         3.08482981       8.35824755       3.17752407         0.00000000       0.00000000       0.00000000          1
H         5.26836626       8.62474101       1.45547984         0.00000000       0.00000000       0.00000000          1
6
pbc=[F, F, F] list_num_par=6 frozen=false iter=20000 energy=-1.26974174 Lattice="15.00000000 0.00000000 0.00000000 0.00000000 15.00000000 0.00000000 0.00000000 0.00000000 15.00000000" energy_frozen_part=0.00000000 Properties=species:S:1:pos:R:3:velocities:R:3:Z:I:1
H         5.28197978       9.90727386       3.93723282         0.00000000       0.00000000       0.00000000          1
H         5.03668640      11.40539475       1.59207163         0.00000000       0.00000000       0.00000000          1
H         2.85314585      11.13884787       3.31410229         0.00000000       0.00000000       0.00000000          1
H         2.83953597       9.85633018       0.83232025         0.00000000       0.00000000       0.00000000          1
H         3.08483029       8.35821027       3.17747938         0.00000000       0.00000000       0.00000000          1
H         5.26836827       8.62475707       1.45544381         0.00000000       0.00000000       0.00000000          1
6
pbc=[F, F, F] list_num_par=6 frozen=false iter=20000 energy=-1.26974174 Lattice="15.00000000 0.00000000 0.00000000 0.00000000 15.00000000 0.00000000 0.00000000 0.00000000 15.00000000" energy_frozen_part=0.00000000 Properties=species:S:1:pos:R:3:velocities:R:3:Z:I:1
H         5.28153233       9.90745602       3.93749100         0.00000000       0.00000000       0.00000000          1
H         5.03636908      11.40561446       1.59235059         0.00000000       0.00000000       0.00000000          1
H         2.85263288      11.13875065       3.31408382         0.00000000       0.00000000       0.00000000          1
H         2.83950505       9.85630766       0.83226307         0.00000000       0.00000000       0.00000000          1
H         3.08466387       8.35814974       3.17740866         0.00000000       0.00000000       0.00000000          1
H         5.26839909       8.62500864       1.45567224         0.00000000       0.00000000       0.00000000          1
6
pbc=[F, F, F] list_num_par=6 frozen=false iter=20000 energy=-1.26974174 Lattice="15.00000000 0.00000000 0.00000000 0.00000000 15.00000000 0.00000000 0.00000000 0.00000000 15.00000000" energy_frozen_part=0.00000000 Properties=species:S:1:pos:R:3:velocities:R:3:Z:I:1
H         5.28244442       9.90794422       3.93574792         0.00000000       0.00000000       0.00000000          1
H         5.03723742      11.40602515       1.59055761         0.00000000       0.00000000       0.00000000          1
H         2.85424746      11.14124125       3.31356432         0.00000000       0.00000000       0.00000000          1
H         2.83862477       9.85850493       0.83190698         0.00000000       0.00000000       0.00000000          1
H         3.08382690       8.36042512       3.17709241         0.00000000       0.00000000       0.00000000          1
H         5.26682205       8.62520686       1.45409558         0.00000000       0.00000000       0.00000000          1
6
pbc=[F, F, F] list_num_par=6 frozen=false iter=20000 energy=-1.26974174 Lattice="15.00000000 0.00000000 0.00000000 0.00000000 15.00000000 0.00000000 0.00000000 0.00000000 15.00000000" energy_frozen_part=0.00000000 Properties=species:S:1:pos:R:3:velocities:R:3:Z:I:1
H         5.28156540       9.90748893       3.93745860         0.00000000       0.00000000       0.00000000          1
H         5.03640332      11.40559116       1.59227899         0.00000000       0.00000000       0.00000000          1
H         2.85268023      11.13881263       3.31404009         0.00000000       0.00000000       0.00000000          1
H         2.83951265       9.85630208       0.83224858         0.00000000       0.00000000       0.00000000          1
H         3.08466760       8.35819818       3.17743009         0.00000000       0.00000000       0.00000000          1
H         5.26838845       8.62497851       1.45566983         0.00000000       0.00000000       0.00000000          1
6
pbc=[F, F, F] list_num_par=6 frozen=false iter=20000 energy=-1.26974174 Lattice="15.00000000 0.00000000 0.00000000 0.00000000 15.00000000 0.00000000 0.00000000 0.00000000 15.00000000" energy_frozen_part=0.00000000 Properties=species:S:1:pos:R:3:velocities:R:3:Z:I:1
H         5.28150748       9.90747728       3.93749826         0.00000000       0.00000000       0.00000000          1
H         5.03636242      11.40563029       1.59234990         0.00000000       0.00000000       0.00000000          1