6
pbc=[F, F, F] list_num_par=6 frozen=false iter=20000 energy=-1.26974174 Lattice="15.00000000 0.00000000 0.00000000 0.00000000 15.00000000 0.00000000 0.00000000 0.00000000 15.00000000" energy_frozen_part=0.00000000 Properties=species:S:1:pos:R:3:velocities:R:3:Z:I:1
H         3.84623773       2.78018516      10.05891119         0.00000000       0.00000000       0.00000000          1
H         6.00547862       3.45182041       8.41852509         0.00000000       0.00000000       0.00000000          1
H         3.46281443       4.46911935       7.86692501         0.00000000       0.00000000       0.00000000          1
H         5.85169021       4.47456534      11.01364236         0.00000000       0.00000000       0.00000000          1
H         3.30902822       5.49185921      10.46204212         0.00000000       0.00000000       0.00000000          1
H         5.46827612       6.16350101       8.82166529         0.00000000       0.00000000       0.00000000          1
6
pbc=[F, F, F] list_num_par=6 frozen=false iter=20000 energy=-1.26974174 Lattice="15.00000000 0.00000000 0.00000000 0.00000000 15.00000000 0.00000000 0.00000000 0.00000000 15.00000000" energy_frozen_part=0.00000000 Properties=species:S:1:pos:R:3:velocities:R:3:Z:I:1
H         3.84365046       2.78068306      10.06821972         0.00000000       0.00000000       0.00000000          1
H         5.99531609       3.45456213       8.41881908         0.00000000       0.00000000       0.00000000          1
H         3.44606301       4.45569121       7.86809532         0.00000000       0.00000000       0.00000000          1
H         5.84267166       4.49054837      11.00873841         0.00000000       0.00000000       0.00000000          1
H         3.29341367       5.49169064      10.45802009         0.00000000       0.00000000       0.00000000          1
H         5.44507046       6.16556797       8.80862149         0.00000000       0.00000000       0.00000000          1
6
pbc=[F, F, F] list_num_par=6 frozen=false iter=20000 energy=-1.26974174 Lattice="15.00000000 0.00000000 0.00000000 0.00000000 15.00000000 0.00000000 0.00000000 0.00000000 15.00000000" energy_frozen_part=0.00000000 Properties=species:S:1:pos:R:3:velocities:R:3:Z:I:1
H         3.84460258       2.77993343      10.06911403         0.00000000       0.00000000       0.00000000          1
H         5.99641736       3.45432908       8.42011680         0.00000000       0.00000000       0.00000000          1
H         3.44691491       4.45438449       7.86857889         0.00000000       0.00000000       0.00000000          1
H         5.84272134       4.49075241      11.00980143         0.00000000       0.00000000       0.00000000          1
H         3.29322446       5.49080843      10.45826418         0.00000000       0.00000000       0.00000000          1
H         5.44504222       6.16520227       8.80926668         0.00000000       0.00000000       0.00000000          1
6
pbc=[F, F, F] list_num_par=6 frozen=false iter=20000 energy=-1.26974174 Lattice="15.00000000 0.00000000 0.00000000 0.00000000 15.00000000 0.00000000 0.00000000 0.00000000 15.00000000" energy_frozen_part=0.00000000 Properties=species:S:1:pos:R:3:velocities:R:3:Z:I:1
H         3.84583683       2.77939467      10.05857208         0.00000000       0.00000000       0.00000000          1
H         6.00539883       3.45119896       8.41868188         0.00000000       0.00000000       0.00000000          1
H         3.46277147       4.46824911       7.86646472         0.00000000       0.00000000       0.00000000          1
H         5.85091191       4.47397418      11.01373987         0.00000000       0.00000000       0.00000000          1
H         3.30828981       5.49102383      10.46153201         0.00000000       0.00000000       0.00000000          1
H         5.46785120       6.16283228       8.82164302         0.00000000       0.00000000       0.00000000          1
6
pbc=[F, F, F] list_num_par=6 frozen=false iter=20000 energy=-1.26974174 Lattice="15.00000000 0.00000000 0.00000000 0.00000000 15.00000000 0.00000000 0.00000000 0.00000000 15.00000000" energy_frozen_part=0.00000000 Properties=species:S:1:pos:R:3:velocities:R:3:Z:I:1
H         3.84637637       2.78032721      10.05886825         0.00000000       0.00000000       0.00000000          1
H         6.00557510       3.45220706       8.41851314         0.00000000       0.00000000       0.00000000          1
H         3.46284760       4.46940829       7.86702409         0.00000000       0.00000000       0.00000000          1
H         5.85175969       4.47473762      11.01370742         0.00000000       0.00000000       0.00000000          1
H         3.30903261       5.49194369      10.46221458         0.00000000       0.00000000       0.00000000          1
H         5.46822396       6.16382023       8.82186244         0.00000000       0.00000000       0.00000000          1
6
pbc=[F, F, F] list_num_par=6 frozen=false iter=20000 energy=-1.26974174 Lattice="15.00000000 0.00000000 0.00000000 0.00000000 15.00000000 0.00000000 0.00000000 0.00000000 15.00000000" energy_frozen_part=0.00000000 Properties=species:S:1:pos:R:3:velocities:R:3:Z:I:1
H         3.84636115       2.78030560      10.05882701         0.00000000       0.00000000       0.00000000          1
H         6.00557136       3.45219098       8.41849518         0.00000000       0.00000000       0.00000000          1
H         3.46286292       4.46942914       7.86701129         0.00000000       0.00000000       0.00000000          1
H         5.85174239       4.47467320      11.01371249         0.00000000       0.00000000       0.00000000          1
H         3.30903922       5.49192166      10.46222579         0.00000000       0.00000000       0.00000000          1
H         5.46824247       6.16380615       8.82189375         0.00000000       0.00000000       0.00000000          1
6
pbc=[F, F, F] list_num_par=6 frozen=false iter=20000 energy=-1.26974174 Lattice="15.00000000 0.00000000 0.00000000 0.00000000 15.00000000 0.00000000 0.00000000 0.00000000 15.00000000" energy_frozen_part=0.00000000 Properties=species:S:1:pos:R:3:velocities:R:3:Z:I:1
H         3.84364227       2.78064189      10.06823403         0.00000000       0.00000000       0.00000000          1
H         5.99531293       3.45451655       8.41884750         0.00000000       0.00000000       0.00000000          1
H         3.44606443       4.45569347       7.86814579         0.00000000       0.00000000       0.00000000          1
H         5.84266608       4.49047616      11.00879401         0.00000000       0.00000000       0.00000000          1
H         3.29341603       5.49164851      10.45808337         0.00000000       0.00000000       0.00000000          1
H         5.44509700       6.16552492       8.80869697         0.00000000       0.00000000       0.00000000          1
6
pbc=[F, F, F] list_num_par=6 frozen=false iter=20000 energy=-1.26974174 Lattice="15.00000000 0.00000000 0.00000000 0.00000000 15.00000000 0.00000000 0.00000000 0.00000000 15.00000000" energy_frozen_part=0.00000000 Properties=species:S:1:pos:R:3:velocities:R:3:Z:I:1
H         3.84584797       2.77935821      10.05864775         0.00000000       0.00000000       0.00000000          1
H         6.00548844       3.45115935       8.41885511         0.00000000       0.00000000       0.00000000          1
H         3.46287790       4.46816872       7.86649611         0.00000000       0.00000000       0.00000000          1
H         5.85086043       4.47397518      11.01389424         0.00000000       0.00000000       0.00000000          1
H         3.30825518       5.49099071      10.46153173         0.00000000       0.00000000       0.00000000          1
H         5.46789683       6.16279401       8.82173838         0.00000000       0.00000000       0.00000000          1
6
pbc=[F, F, F] list_num_par=6 frozen=false iter=20000 energy=-1.26974174 Lattice="15.00000000 0.00000000 0.00000000 0.00000000 15.00000000 0.00000000 0.00000000 0.00000000 15.00000000" energy_frozen_part=0.00000000 Properties=species:S:1:pos:R:3:velocities:R:3:Z:I:1
H         3.84636524       2.78030487      10.05885863         0.00000000       0.00000000       0.00000000          1
H         6.00555162       3.45220796       8.41850924         0.00000000       0.00000000       0.00000000          1
H         3.46283093       4.46940549       7.86702506         0.00000000       0.00000000       0.00000000          1
H         5.85173895       4.47470346      11.01371765         0.00000000       0.00000000       0.00000000          1
H         3.30901539       5.49191374      10.46222719         0.00000000       0.00000000       0.00000000          1
H         5.46820764       6.16381433       8.82188852         0.00000000       0.00000000       0.00000000          1
6
pbc=[F, F, F] list_num_par=6 frozen=false iter=20000 energy=-1.26974174 Lattice="15.00000000 0.00000000 0.00000000 0.00000000 15.00000000 0.00000000 0.00000000 0.00000000 15.00000000" energy_frozen_part=0.00000000 Properties=species:S:1:pos:R:3:velocities:R:3:Z:I:1
H         3.84639360       2.78032440      10.05885933         0.00000000       0.00000000       0.00000000          1
H         6.00558409       3.45220622       8.41850666         0.00000000       0.00000000       0.00000000          1
H         3.46285918       4.46940437       7.86701104         0.00000000       0.00000000       0.00000000          1
H         5.85175620       4.47473874      11.01371072         0.00000000       0.00000000       0.00000000          1
H         3.30903335       5.49194049      10.46221078         0.00000000       0.00000000       0.00000000          1
H         5.46822541       6.16381261       8.82186388         0.00000000       0.00000000       0.00000000          1
6
pbc=[F, F, F] list_num_par=6 frozen=false iter=20000 energy=-1.26974174 Lattice="15.00000000 0.00000000 0.00000000 0.00000000 15.00000000 0.00000000 0.00000000 0.00000000 15.00000000" energy_frozen_part=0.00000000 Properties=species:S:1:pos:R:3:velocities:R:3:Z:I:1
H         3.84643155       2.77996363      10.05909069         0.00000000       0.00000000       0.00000000          1
H         6.00541383       3.45209013       8.41856440         0.00000000       0.00000000       0.00000000          1
H         3.46254134       4.46903817       7.86729022         0.00000000       0.00000000       0.00000000          1
H         5.85170080       4.47457404      11.01378953         0.00000000       0.00000000       0.00000000          1
H         3.30882926       5.49151939      10.46251317         0.00000000       0.00000000       0.00000000          1
H         5.46781838       6.16363754       8.82199440         0.00000000       0.00000000       0.00000000          1
6
pbc=[F, F, F] list_num_par=6 frozen=false iter=20000 energy=-1.26974174 Lattice="15.00000000 0.00000000 0.00000000 0.00000000 15.00000000 0.00000000 0.00000000 0.00000000 15.00000000" energy_frozen_part=0.00000000 Properties=species:S:1:pos:R:3:velocities:R:3:Z:I:1
H         3.84633367       2.78024264      10.05884312         0.00000000       0.00000000       0.00000000          1
H         6.00552667       3.45211286       8.41849031         0.00000000       0.00000000       0.00000000          1
H         3.46282960       4.46937526       7.86702167         0.00000000       0.00000000       0.00000000          1
H         5.85173916       4.47460213      11.01371129         0.00000000       0.00000000       0.00000000          1
H         3.30903807       5.49186166      10.46223374         0.00000000       0.00000000       0.00000000          1
H         5.46823757       6.16373349       8.82189542         0.00000000       0.00000000       0.00000000          1
6
pbc=[F, F, F] list_num_par=6 frozen=false iter=20000 energy=-1.26974174 Lattice="15.00000000 0.00000000 0.00000000 0.00000000 15.00000000 0.00000000 0.00000000 0.00000000 15.00000000" energy_frozen_part=0.00000000 Properties=species:S:1:pos:R:3:velocities:R:3:Z:I:1
H         3.84638988       2.78031413      10.05886055         0.00000000       0.00000000       0.00000000          1
H         6.00556923       3.45219443       8.41848684         0.00000000       0.00000000       0.00000000          1
H         3.46283908       4.46939200       7.86701203         0.00000000       0.00000000       0.00000000          1
H         5.85177020       4.47472030      11.01368788         0.00000000       0.00000000       0.00000000          1
H         3.30904470       5.49192192      10.46220971         0.00000000       0.00000000       0.00000000          1
H         5.46821716       6.16380118       8.82184331         0.00000000       0.00000000       0.00000000          1
6
pbc=[F, F, F] list_num_par=6 frozen=false iter=20000 energy=-1.26974174 Lattice="15.00000000 0.00000000 0.00000000 0.00000000 15.00000000 0.00000000 0.00000000 0.00000000 15.00000000" energy_frozen_part=0.00000000 Properties=species:S:1:pos:R:3:velocities:R:3:Z:I:1
H         3.84638792       2.78023908      10.05884718         0.00000000       0.00000000       0.00000000          1
H         6.00556291       3.45214317       8.41849209         0.00000000       0.00000000       0.00000000          1
H         3.46284361       4.46934555       7.86701644         0.00000000       0.00000000       0.00000000          1
H         5.85176024       4.47464580      11.01370322         0.00000000       0.00000000       0.00000000          1
H         3.30903224       5.49184104      10.46223365         0.00000000       0.00000000       0.00000000          1
H         5.46821386       6.16374791       8.82187552         0.00000000       0.00000000       0.00000000          1
6
pbc=[F, F, F] list_num_par=6 frozen=false iter=20000 energy=-1.26974174 Lattice="15.00000000 0.00000000 0.00000000 0.00000000 15.00000000 0.00000000 0.00000000 0.00000000 15.00000000" energy_frozen_part=0.00000000 Properties=species:S:1:pos:R:3:velocities:R:3:Z:I:1
H         3.84368538       2.78067535      10.06823330         0.00000000       0.00000000       0.00000000          1
H         5.99538692       3.45452042       8.41886058         0.00000000       0.00000000       0.00000000          1
H         3.44613861       4.45565967       7.86808793         0.00000000       0.00000000       0.00000000          1
H         5.84269003       4.49054557      11.00876632         0.00000000       0.00000000       0.00000000          1
H         3.29344051       5.49168732      10.45799716         0.00000000       0.00000000       0.00000000          1
H         5.44513026       6.16553681       8.80862824         0.00000000       0.00000000       0.00000000          1
6
pbc=[F, F, F] list_num_par=6 frozen=false iter=20000 energy=-1.26974174 Lattice="15.00000000 0.00000000 0.00000000 0.00000000 15.00000000 0.00000000 0.00000000 0.00000000 15.00000000" energy_frozen_part=0.00000000 Properties=species:S:1:pos:R:3:velocities:R:3:Z:I:1
H         3.84637231       2.78029985      10.05889302         0.00000000       0.00000000       0.00000000          1
H         6.00553180       3.45216168       8.41849482         0.00000000       0.00000000       0.00000000          1
H         3.46280980       4.46937533       7.86704157         0.00000000       0.00000000       0.00000000          1
H         5.85178508       4.47470661      11.01368530         0.00000000       0.00000000       0.00000000          1
H         3.30905522       5.49192142      10.46223435         0.00000000       0.00000000       0.00000000          1
H         5.46821212       6.16378191       8.82183663         0.00000000       0.00000000       0.00000000          1
6
pbc=[F, F, F] list_num_par=6 frozen=false iter=20000 energy=-1.26974174 Lattice="15.00000000 0.00000000 0.00000000 0.00000000 15.00000000 0.00000000 0.00000000 0.00000000 15.00000000" energy_frozen_part=0.00000000 Properties=species:S:1:pos:R:3:velocities:R:3:Z:I:1
H         3.84370171       2.78065783      10.06823597         0.00000000       0.00000000       0.00000000          1
H         5.99539248       3.45453661       8.41887403         0.00000000       0.00000000       0.00000000          1
H         3.44614469       4.45565280       7.86809303         0.00000000       0.00000000       0.00000000          1
H         5.84268020       4.49055790      11.00878008         0.00000000       0.00000000       0.00000000          1
H         3.29343105       5.49167072      10.45800636         0.00000000       0.00000000       0.00000000          1
H         5.44511502       6.16554726       8.80863708         0.00000000       0.00000000       0.00000000          1
6
pbc=[F, F, F] list_num_par=6 frozen=false iter=20000 energy=-1.26974174 Lattice="15.00000000 0.00000000 0.00000000 0.00000000 15.00000000 0.00000000 0.00000000 0.00000000 15.00000000" energy_frozen_part=0.00000000 Properties=species:S:1:pos:R:3:velocities:R:3:Z:I:1
H         3.84637415       2.78030406      10.05884674         0.00000000       0.00000000       0.00000000          1
H         6.00556144       3.45220166       8.41848839         0.00000000       0.00000000       0.00000000          1
H         3.46284124       4.46943215       7.86703484         0.00000000       0.00000000       0.00000000          1
H         5.85176356       4.47468035      11.01370954         0.00000000       0.00000000       0.00000000          1
H         3.30904681       5.49191946      10.46224903         0.00000000       0.00000000       0.00000000          1
H         5.46823048       6.16381229       8.82190631         0.00000000       0.00000000       0.00000000          1
6
pbc=[F, F, F] list_num_par=6 frozen=false iter=20000 energy=-1.26974174 Lattice="15.00000000 0.00000000 0.00000000 0.00000000 15.00000000 0.00000000 0.00000000 0.00000000 15.00000000" energy_frozen_part=0.00000000 Properties=species:S:1:pos:R:3:velocities:R:3:Z:I:1
H         3.84638870       2.78030820      10.05884929         0.00000000       0.00000000       0.00000000          1
H         6.00555388       3.45219821       8.41847264         0.00000000       0.00000000       0.00000000          1
H         3.46282709       4.46939682       7.86701153         0.00000000       0.00000000       0.00000000          1
H         5.85177315       4.47472558      11.01366863         0.00000000       0.00000000       0.00000000          1
H         3.30903721       5.49191223      10.46221424         0.00000000       0.00000000       0.00000000          1
H         5.46820194       6.16380974       8.82183554         0.00000000       0.00000000       0.00000000          1
6
pbc=[F, F, F] list_num_par=6 frozen=false iter=20000 energy=-1.26974174 Lattice="15.00000000 0.00000000 0.00000000 0.00000000 15.00000000 0.00000000 0.00000000 0.00000000 15.00000000" energy_frozen_part=0.00000000 Properties=species:S:1:pos:R:3:velocities:R:3:Z:I:1
H         3.84460055       2.77993662      10.06911463         0.00000000       0.00000000       0.00000000          1
H         5.99641003       3.45430347       8.42011151         0.00000000       0.00000000       0.00000000          1
H         3.44691738       4.45438565       7.86857049         0.00000000       0.00000000       0.00000000          1
H         5.84273788       4.49073007      11.00980178         0.00000000       0.00000000       0.00000000          1
H         3.29323999       5.49081032      10.45826519         0.00000000       0.00000000       0.00000000          1
H         5.44505941       6.16517641       8.80926184         0.00000000       0.00000000       0.00000000          1
6
pbc=[F, F, F] list_num_par=6 frozen=false iter=20000 energy=-1.26974174 Lattice="15.00000000 0.00000000 0.00000000 0.00000000 15.00000000 0.00000000 0.00000000 0.00000000 15.00000000" energy_frozen_part=0.00000000 Properties=species:S:1:pos:R:3:velocities:R:3:Z:I:1
H         3.84460106       2.77993979      10.06912193         0.00000000       0.00000000       0.00000000          1
H         5.99641158       3.45430478       8.42011112         0.00000000       0.00000000       0.00000000          1
H         3.44690748       4.45438697       7.86858598         0.00000000       0.00000000       0.00000000          1
H         5.84273842       4.49073535      11.00980326         0.00000000       0.00000000       0.00000000          1
H         3.29323847       5.49081856      10.45827212         0.00000000       0.00000000       0.00000000          1
H         5.44505347       6.16518555       8.80927296         0.00000000       0.00000000       0.00000000          1
6
pbc=[F, F, F] list_num_par=6 frozen=false iter=20000 energy=-1.26974174 Lattice="15.00000000 0.00000000 0.00000000 0.00000000 15.00000000 0.00000000 0.00000000 0.00000000 15.00000000" energy_frozen_part=0.00000000 Properties=species:S:1:pos:R:3:velocities:R:3:Z:I:1
H         3.84363356       2.78064503      10.06824542         0.00000000       0.00000000       0.00000000          1
H         5.99531745       3.45451396       8.41886473         0.00000000       0.00000000       0.00000000          1
H         3.44607155       4.45569777       7.86815724         0.00000000       0.00000000       0.00000000          1
H         5.84267115       4.49046250      11.00880528         0.00000000       0.00000000       0.00000000          1
H         3.29343125       5.49165306      10.45809318         0.00000000       0.00000000       0.00000000          1
H         5.44510930       6.16552610       8.80871923         0.00000000       0.00000000       0.00000000          1
6
pbc=[F, F, F] list_num_par=6 frozen=false iter=20000 energy=-1.26974174 Lattice="15.00000000 0.00000000 0.00000000 0.00000000 15.00000000 0.00000000 0.00000000 0.00000000 15.00000000" energy_frozen_part=0.00000000 Properties=species:S:1:pos:R:3:velocities:R:3:Z:I:1
H         3.84636904       2.78030130      10.05882261         0.00000000       0.00000000       0.00000000          1
H         6.00556645       3.45219300       8.41849498         0.00000000       0.00000000       0.00000000          1
H         3.46285607       4.46941834       7.86700128         0.00000000       0.00000000       0.00000000          1
H         5.85174273       4.47467892      11.01371446         0.00000000       0.00000000       0.00000000          1
H         3.30903286       5.49191019      10.46221715         0.00000000       0.00000000       0.00000000          1
H         5.46823155       6.16380449       8.82189285         0.00000000       0.00000000       0.00000000          1
6
pbc=[F, F, F] list_num_par=6 frozen=false iter=20000 energy=-1.26974174 Lattice="15.00000000 0.00000000 0.00000000 0.00000000 15.00000000 0.00000000 0.00000000 0.00000000 15.00000000" energy_frozen_part=0.00000000 Properties=species:S:1:pos:R:3:velocities:R:3:Z:I:1
H         3.84590692       2.77933983      10.05871135         0.00000000       0.00000000       0.00000000          1
H         6.00551802       3.45111274       8.41886009         0.00000000       0.00000000       0.00000000          1
H         3.46289981       4.46811907       7.86653393         0.00000000       0.00000000       0.00000000          1
H         5.85093438       4.47397028      11.01388412         0.00000000       0.00000000       0.00000000          1
H         3.30832052       5.49098450      10.46154868         0.00000000       0.00000000       0.00000000          1
H         5.46793619       6.16274725       8.82170890         0.00000000       0.00000000       0.00000000          1
6
pbc=[F, F, F] list_num_par=6 frozen=false iter=20000 energy=-1.26974174 Lattice="15.00000000 0.00000000 0.00000000 0.00000000 15.00000000 0.00000000 0.00000000 0.00000000 15.00000000" energy_frozen_part=0.00000000 Properties=species:S:1:pos:R:3:velocities:R:3:Z:I:1
H         3.84364617       2.78063910      10.06823963         0.00000000       0.00000000       0.00000000          1
H         5.99531591       3.45452717       8.41886130         0.00000000       0.00000000       0.00000000          1
H         3.44607154       4.45568437       7.86814578         0.00000000       0.00000000       0.00000000          1
H         5.84266289       4.49049000      11.00879812         0.00000000       0.00000000       0.00000000          1
H         3.29341147       5.49164915      10.45807797         0.00000000       0.00000000       0.00000000          1
H         5.44508678       6.16553483       8.80869210         0.00000000       0.00000000       0.00000000          1
6
pbc=[F, F, F] list_num_par=6 frozen=false iter=20000 energy=-1.26974174 Lattice="15.00000000 0.00000000 0.00000000 0.00000000 15.00000000 0.00000000 0.00000000 0.00000000 15.00000000" energy_frozen_part=0.00000000 Properties=species:S:1:pos:R:3:velocities:R:3:Z:I:1
H         3.84368202       2.78066918      10.06822278         0.00000000       0.00000000       0.00000000          1
H         5.99538897       3.45453489       8.41888364         0.00000000       0.00000000       0.00000000          1
H         3.44614813       4.45567732       7.86808430         0.00000000       0.00000000       0.00000000          1
H         5.84266982       4.49054309      11.00879427         0.00000000       0.00000000       0.00000000          1
H         3.29342480       5.49168724      10.45800032         0.00000000       0.00000000       0.00000000          1
H         5.44513310       6.16554964       8.80865463         0.00000000       0.00000000       0.00000000          1
6
pbc=[F, F, F] list_num_par=6 frozen=false iter=20000 energy=-1.26974174 Lattice="15.00000000 0.00000000 0.00000000 0.00000000 15.00000000 0.00000000 0.00000000 0.00000000 15.00000000" energy_frozen_part=0.00000000 Properties=species:S:1:pos:R:3:velocities:R:3:Z:I:1
H         3.84589787       2.77934260      10.05873866         0.00000000       0.00000000       0.00000000          1
H         6.00549915       3.45109885       8.41887999         0.00000000       0.00000000       0.00000000          1
H         3.46287879       4.46810959       7.86655737         0.00000000       0.00000000       0.00000000          1
H         5.85093592       4.47397744      11.01390158         0.00000000       0.00000000       0.00000000          1
H         3.30831585       5.49098597      10.46157623         0.00000000       0.00000000       0.00000000          1
H         5.46792863       6.16273947       8.82171533         0.00000000       0.00000000       0.00000000          1
6
pbc=[F, F, F] list_num_par=6 frozen=false iter=20000 energy=-1.26974174 Lattice="15.00000000 0.00000000 0.00000000 0.00000000 15.00000000 0.00000000 0.00000000 0.00000000 15.00000000" energy_frozen_part=0.00000000 Properties=species:S:1:pos:R:3:velocities:R:3:Z:I:1
H         3.84635550       2.78025105      10.05883927         0.00000000       0.00000000       0.00000000          1
H         6.00553556       3.45214033       8.41847621         0.00000000       0.00000000       0.00000000          1
H         3.46281864       4.46935757       7.86701606         0.00000000       0.00000000       0.00000000          1
H         5.85175750       4.47463576      11.01368422         0.00000000       0.00000000       0.00000000          1
H         3.30903660       5.49186320      10.46223183         0.00000000       0.00000000       0.00000000          1
H         5.46821341       6.16374954       8.82186589         0.00000000       0.00000000       0.00000000          1
6
pbc=[F, F, F] list_num_par=6 frozen=false iter=20000 energy=-1.26974174 Lattice="15.00000000 0.00000000 0.00000000 0.00000000 15.00000000 0.00000000 0.00000000 0.00000000 15.00000000" energy_frozen_part=0.00000000 Properties=species:S:1:pos:R:3:velocities:R:3:Z:I:1
H         3.84637769       2.78030980      10.05888119         0.00000000       0.00000000       0.00000000          1
H         6.00554511       3.45216198       8.41848295         0.00000000       0.00000000       0.00000000          1
H         3.46281998       4.46937594       7.86701951         0.00000000       0.00000000       0.00000000          1
H         5.85177395       4.47471946      11.01367735         0.00000000       0.00000000       0.00000000          1
H         3.30904273       5.49192094      10.46221936         0.00000000       0.00000000       0.00000000          1
H         5.46821373       6.16378396       8.82182652         0.00000000       0.00000000       0.00000000          1
6
pbc=[F, F, F] list_num_par=6 frozen=false iter=20000 energy=-1.26974174 Lattice="15.00000000 0.00000000 0.00000000 0.00000000 15.00000000 0.00000000 0.00000000 0.00000000 15.00000000" energy_frozen_part=0.00000000 Properties=species:S:1:pos:R:3:velocities:R:3:Z:I:1
H         3.84617818       2.78020106      10.05895193         0.00000000       0.00000000       0.00000000          1
H         6.00548376       3.45184236       8.41865794         0.00000000       0.00000000       0.00000000          1
H         3.46283951       4.46911996       7.86694096         0.00000000       0.00000000       0.00000000          1
H         5.85156840       4.47460466      11.01376155         0.00000000       0.00000000       0.00000000          1
H         3.30892957       5.49187708      10.46204766         0.00000000       0.00000000       0.00000000          1
H         5.46823722       6.16351578       8.82175020         0.00000000       0.00000000       0.00000000          1
6
pbc=[F, F, F] list_num_par=6 frozen=false iter=20000 energy=-1.26974174 Lattice="15.00000000 0.00000000 0.00000000 0.00000000 15.00000000 0.00000000 0.00000000 0.00000000 15.00000000" energy_frozen_part=0.00000000 Properties=species:S:1:pos:R:3:velocities:R:3:Z:I:1
H         3.84369424       2.78066072      10.06823430         0.00000000       0.00000000       0.00000000          1
H         5.99537438       3.45451558       8.41885538         0.00000000       0.00000000       0.00000000          1