6
pbc=[F, F, F] list_num_par=6 frozen=false iter=20000 energy=-1.26974174 Lattice="15.00000000 0.00000000 0.00000000 0.00000000 15.00000000 0.00000000 0.00000000 0.00000000 15.00000000" energy_frozen_part=0.00000000 Properties=species:S:1:pos:R:3:velocities:R:3:Z:I:1
H         9.82922827       8.27283117      13.14233126         0.00000000       0.00000000       0.00000000          1
H        11.14511525       9.08529376      10.81582915         0.00000000       0.00000000       0.00000000          1
H        10.57930754      11.75185713      11.42703236         0.00000000       0.00000000       0.00000000          1
H         9.26342813      10.93939894      13.75353906         0.00000000       0.00000000       0.00000000          1
H         8.50829848       9.88273140      11.28017398         0.00000000       0.00000000       0.00000000          1
H        11.90023468      10.14195678      13.28919387         0.00000000       0.00000000       0.00000000          1
6
pbc=[F, F, F] list_num_par=6 frozen=false iter=20000 energy=-1.26974174 Lattice="15.00000000 0.00000000 0.00000000 0.00000000 15.00000000 0.00000000 0.00000000 0.00000000 15.00000000" energy_frozen_part=0.00000000 Properties=species:S:1:pos:R:3:velocities:R:3:Z:I:1
H         9.82924643       8.27283508      13.14225112         0.00000000       0.00000000       0.00000000          1
H        11.14521350       9.08540357      10.81582735         0.00000000       0.00000000       0.00000000          1
H        10.57940375      11.75194458      11.42714005         0.00000000       0.00000000       0.00000000          1
H         9.26343563      10.93936991      13.75356123         0.00000000       0.00000000       0.00000000          1
H         8.50838962       9.88283110      11.28012155         0.00000000       0.00000000       0.00000000          1
H        11.90026139      10.14195136      13.28926418         0.00000000       0.00000000       0.00000000          1
6
pbc=[F, F, F] list_num_par=6 frozen=false iter=20000 energy=-1.26974174 Lattice="15.00000000 0.00000000 0.00000000 0.00000000 15.00000000 0.00000000 0.00000000 0.00000000 15.00000000" energy_frozen_part=0.00000000 Properties=species:S:1:pos:R:3:velocities:R:3:Z:I:1
H         9.82796221       8.27222823      13.14783014         0.00000000       0.00000000       0.00000000          1
H        11.14344462       9.07794996      10.81874940         0.00000000       0.00000000       0.00000000          1
H        10.58416620      11.74677344      11.42611693         0.00000000       0.00000000       0.00000000          1
H         9.26869290      10.94104608      13.75519609         0.00000000       0.00000000       0.00000000          1
H         8.50886244       9.88202457      11.28428592         0.00000000       0.00000000       0.00000000          1
H        11.90327555      10.13697461      13.28966399         0.00000000       0.00000000       0.00000000          1
6
pbc=[F, F, F] list_num_par=6 frozen=false iter=20000 energy=-1.26974174 Lattice="15.00000000 0.00000000 0.00000000 0.00000000 15.00000000 0.00000000 0.00000000 0.00000000 15.00000000" energy_frozen_part=0.00000000 Properties=species:S:1:pos:R:3:velocities:R:3:Z:I:1
H         9.85112978       8.21526224      13.09099026         0.00000000       0.00000000       0.00000000          1
H        11.16036599       9.07418924      10.77746297         0.00000000       0.00000000       0.00000000          1
H        10.54649399      11.72416738      11.41391110         0.00000000       0.00000000       0.00000000          1
H         9.23724768      10.86523322      13.72743551         0.00000000       0.00000000       0.00000000          1
H         8.50864150       9.82114303      11.24081636         0.00000000       0.00000000       0.00000000          1
H        11.88897289      10.11827958      13.26408661         0.00000000       0.00000000       0.00000000          1
6
pbc=[F, F, F] list_num_par=6 frozen=false iter=20000 energy=-1.26974174 Lattice="15.00000000 0.00000000 0.00000000 0.00000000 15.00000000 0.00000000 0.00000000 0.00000000 15.00000000" energy_frozen_part=0.00000000 Properties=species:S:1:pos:R:3:velocities:R:3:Z:I:1
H         9.85132909       8.21521219      13.09094804         0.00000000       0.00000000       0.00000000          1
H        11.16051352       9.07431637      10.77744848         0.00000000       0.00000000       0.00000000          1
H        10.54634282      11.72421351      11.41391263         0.00000000       0.00000000       0.00000000          1
H         9.23715362      10.86511734      13.72741379         0.00000000       0.00000000       0.00000000          1
H         8.50869603       9.82097189      11.24077331         0.00000000       0.00000000       0.00000000          1
H        11.88896853      10.11845603      13.26409666         0.00000000       0.00000000       0.00000000          1
6
pbc=[F, F, F] list_num_par=6 frozen=false iter=20000 energy=-1.26974174 Lattice="15.00000000 0.00000000 0.00000000 0.00000000 15.00000000 0.00000000 0.00000000 0.00000000 15.00000000" energy_frozen_part=0.00000000 Properties=species:S:1:pos:R:3:velocities:R:3:Z:I:1
H         9.82923961       8.27281259      13.14233299         0.00000000       0.00000000       0.00000000          1
H        11.14513600       9.08528718      10.81584177         0.00000000       0.00000000       0.00000000          1
H        10.57931663      11.75185239      11.42705488         0.00000000       0.00000000       0.00000000          1
H         9.26341331      10.93937266      13.75354558         0.00000000       0.00000000       0.00000000          1
H         8.50832218       9.88271812      11.28016885         0.00000000       0.00000000       0.00000000          1
H        11.90023470      10.14194798      13.28921517         0.00000000       0.00000000       0.00000000          1
6
pbc=[F, F, F] list_num_par=6 frozen=false iter=20000 energy=-1.26974174 Lattice="15.00000000 0.00000000 0.00000000 0.00000000 15.00000000 0.00000000 0.00000000 0.00000000 15.00000000" energy_frozen_part=0.00000000 Properties=species:S:1:pos:R:3:velocities:R:3:Z:I:1
H         9.85136218       8.21516998      13.09091379         0.00000000       0.00000000       0.00000000          1
H        11.16051181       9.07432528      10.77741210         0.00000000       0.00000000       0.00000000          1
H        10.54636412      11.72420820      11.41395881         0.00000000       0.00000000       0.00000000          1
H         9.23721360      10.86505475      13.72745315         0.00000000       0.00000000       0.00000000          1
H         8.50871073       9.82097986      11.24079641         0.00000000       0.00000000       0.00000000          1
H        11.88901784      10.11839445      13.26407313         0.00000000       0.00000000       0.00000000          1
6
pbc=[F, F, F] list_num_par=6 frozen=false iter=20000 energy=-1.26974174 Lattice="15.00000000 0.00000000 0.00000000 0.00000000 15.00000000 0.00000000 0.00000000 0.00000000 15.00000000" energy_frozen_part=0.00000000 Properties=species:S:1:pos:R:3:velocities:R:3:Z:I:1
H         9.85133585       8.21521186      13.09095696         0.00000000       0.00000000       0.00000000          1
H        11.16052038       9.07428968      10.77745560         0.00000000       0.00000000       0.00000000          1
H        10.54635185      11.72419650      11.41390522         0.00000000       0.00000000       0.00000000          1
H         9.23715822      10.86511353      13.72740178         0.00000000       0.00000000       0.00000000          1
H         8.50870248       9.82095780      11.24076319         0.00000000       0.00000000       0.00000000          1
H        11.88897460      10.11844835      13.26409372         0.00000000       0.00000000       0.00000000          1
6
pbc=[F, F, F] list_num_par=6 frozen=false iter=20000 energy=-1.26974174 Lattice="15.00000000 0.00000000 0.00000000 0.00000000 15.00000000 0.00000000 0.00000000 0.00000000 15.00000000" energy_frozen_part=0.00000000 Properties=species:S:1:pos:R:3:velocities:R:3:Z:I:1
H         9.85130434       8.21517781      13.09092226         0.00000000       0.00000000       0.00000000          1
H        11.16051187       9.07427080      10.77743711         0.00000000       0.00000000       0.00000000          1
H        10.54640572      11.72417737      11.41393099         0.00000000       0.00000000       0.00000000          1
H         9.23718859      10.86508754      13.72741715         0.00000000       0.00000000       0.00000000          1
H         8.50871905       9.82099484      11.24075715         0.00000000       0.00000000       0.00000000          1
H        11.88898860      10.11837225      13.26409537         0.00000000       0.00000000       0.00000000          1
6
pbc=[F, F, F] list_num_par=6 frozen=false iter=20000 energy=-1.26974174 Lattice="15.00000000 0.00000000 0.00000000 0.00000000 15.00000000 0.00000000 0.00000000 0.00000000 15.00000000" energy_frozen_part=0.00000000 Properties=species:S:1:pos:R:3:velocities:R:3:Z:I:1
H         9.82928602       8.27282918      13.14226464         0.00000000       0.00000000       0.00000000          1
H        11.14523865       9.08538374      10.81582871         0.00000000       0.00000000       0.00000000          1
H        10.57941487      11.75192768      11.42712293         0.00000000       0.00000000       0.00000000          1
H         9.26347666      10.93936818      13.75356128         0.00000000       0.00000000       0.00000000          1
H         8.50841105       9.88280774      11.28013113         0.00000000       0.00000000       0.00000000          1
H        11.90029595      10.14195172      13.28925500         0.00000000       0.00000000       0.00000000          1
6
pbc=[F, F, F] list_num_par=6 frozen=false iter=20000 energy=-1.26974174 Lattice="15.00000000 0.00000000 0.00000000 0.00000000 15.00000000 0.00000000 0.00000000 0.00000000 15.00000000" energy_frozen_part=0.00000000 Properties=species:S:1:pos:R:3:velocities:R:3:Z:I:1
H         9.85122844       8.21522818      13.09091252         0.00000000       0.00000000       0.00000000          1
H        11.16043763       9.07433032      10.77743137         0.00000000       0.00000000       0.00000000          1
H        10.54639211      11.72424470      11.41396435         0.00000000       0.00000000       0.00000000          1
H         9.23719185      10.86514678      13.72744819         0.00000000       0.00000000       0.00000000          1
H         8.50866457       9.82110260      11.24078523         0.00000000       0.00000000       0.00000000          1
H        11.88896464      10.11837166      13.26408928         0.00000000       0.00000000       0.00000000          1
6
pbc=[F, F, F] list_num_par=6 frozen=false iter=20000 energy=-1.26974174 Lattice="15.00000000 0.00000000 0.00000000 0.00000000 15.00000000 0.00000000 0.00000000 0.00000000 15.00000000" energy_frozen_part=0.00000000 Properties=species:S:1:pos:R:3:velocities:R:3:Z:I:1
H         9.82925671       8.27283113      13.14227304         0.00000000       0.00000000       0.00000000          1
H        11.14521696       9.08538149      10.81584688         0.00000000       0.00000000       0.00000000          1
H        10.57940864      11.75193266      11.42713434         0.00000000       0.00000000       0.00000000          1
H         9.26345007      10.93937847      13.75356176         0.00000000       0.00000000       0.00000000          1
H         8.50839466       9.88281445      11.28013477         0.00000000       0.00000000       0.00000000          1
H        11.90026724      10.14194635      13.28927384         0.00000000       0.00000000       0.00000000          1
6
pbc=[F, F, F] list_num_par=6 frozen=false iter=20000 energy=-1.26974174 Lattice="15.00000000 0.00000000 0.00000000 0.00000000 15.00000000 0.00000000 0.00000000 0.00000000 15.00000000" energy_frozen_part=0.00000000 Properties=species:S:1:pos:R:3:velocities:R:3:Z:I:1
H         9.85112518       8.21526280      13.09099387         0.00000000       0.00000000       0.00000000          1
H        11.16035683       9.07419661      10.77746221         0.00000000       0.00000000       0.00000000          1
H        10.54648041      11.72417342      11.41391798         0.00000000       0.00000000       0.00000000          1
H         9.23725366      10.86523939      13.72745024         0.00000000       0.00000000       0.00000000          1
H         8.50863237       9.82115822      11.24082979         0.00000000       0.00000000       0.00000000          1
H        11.88898140      10.11828452      13.26408416         0.00000000       0.00000000       0.00000000          1
6
pbc=[F, F, F] list_num_par=6 frozen=false iter=20000 energy=-1.26974174 Lattice="15.00000000 0.00000000 0.00000000 0.00000000 15.00000000 0.00000000 0.00000000 0.00000000 15.00000000" energy_frozen_part=0.00000000 Properties=species:S:1:pos:R:3:velocities:R:3:Z:I:1
H         9.85136306       8.21515358      13.09088880         0.00000000       0.00000000       0.00000000          1
H        11.16052020       9.07432616      10.77740389         0.00000000       0.00000000       0.00000000          1
H        10.54636553      11.72421024      11.41396720         0.00000000       0.00000000       0.00000000          1
H         9.23721218      10.86504411      13.72746029         0.00000000       0.00000000       0.00000000          1
H         8.50871902       9.82098815      11.24078805         0.00000000       0.00000000       0.00000000          1
H        11.88901179      10.11838450      13.26407258         0.00000000       0.00000000       0.00000000          1
6
pbc=[F, F, F] list_num_par=6 frozen=false iter=20000 energy=-1.26974174 Lattice="15.00000000 0.00000000 0.00000000 0.00000000 15.00000000 0.00000000 0.00000000 0.00000000 15.00000000" energy_frozen_part=0.00000000 Properties=species:S:1:pos:R:3:velocities:R:3:Z:I:1
H         9.82792627       8.27221757      13.14783041         0.00000000       0.00000000       0.00000000          1
H        11.14341393       9.07790833      10.81874632         0.00000000       0.00000000       0.00000000          1
H        10.58418261      11.74673624      11.42609752         0.00000000       0.00000000       0.00000000          1
H         9.26868632      10.94104931      13.75518694         0.00000000       0.00000000       0.00000000          1
H         8.50884410       9.88202702      11.28427482         0.00000000       0.00000000       0.00000000          1
H        11.90326044      10.13692961      13.28965140         0.00000000       0.00000000       0.00000000          1
6
pbc=[F, F, F] list_num_par=6 frozen=false iter=20000 energy=-1.26974174 Lattice="15.00000000 0.00000000 0.00000000 0.00000000 15.00000000 0.00000000 0.00000000 0.00000000 15.00000000" energy_frozen_part=0.00000000 Properties=species:S:1:pos:R:3:velocities:R:3:Z:I:1
H         9.82921941       8.27282263      13.14234360         0.00000000       0.00000000       0.00000000          1
H        11.14512700       9.08527624      10.81584429         0.00000000       0.00000000       0.00000000          1
H        10.57932569      11.75184822      11.42704418         0.00000000       0.00000000       0.00000000          1
H         9.26342607      10.93938821      13.75353629         0.00000000       0.00000000       0.00000000          1
H         8.50831727       9.88272605      11.28016505         0.00000000       0.00000000       0.00000000          1
H        11.90023750      10.14193629      13.28921554         0.00000000       0.00000000       0.00000000          1
6
pbc=[F, F, F] list_num_par=6 frozen=false iter=20000 energy=-1.26974174 Lattice="15.00000000 0.00000000 0.00000000 0.00000000 15.00000000 0.00000000 0.00000000 0.00000000 15.00000000" energy_frozen_part=0.00000000 Properties=species:S:1:pos:R:3:velocities:R:3:Z:I:1
H         9.82924905       8.27285064      13.14228546         0.00000000       0.00000000       0.00000000          1
H        11.14518917       9.08535855      10.81582481         0.00000000       0.00000000       0.00000000          1
H        10.57940420      11.75191442      11.42707897         0.00000000       0.00000000       0.00000000          1
H         9.26346679      10.93941178      13.75353500         0.00000000       0.00000000       0.00000000          1
H         8.50837623       9.88281404      11.28012963         0.00000000       0.00000000       0.00000000          1
H        11.90027475      10.14195903      13.28923103         0.00000000       0.00000000       0.00000000          1
6
pbc=[F, F, F] list_num_par=6 frozen=false iter=20000 energy=-1.26974174 Lattice="15.00000000 0.00000000 0.00000000 0.00000000 15.00000000 0.00000000 0.00000000 0.00000000 15.00000000" energy_frozen_part=0.00000000 Properties=species:S:1:pos:R:3:velocities:R:3:Z:I:1
H         4.99190163       8.47479560      14.04941283         0.00000000       0.00000000       0.00000000          1
H         5.07273204       9.78928890      11.58570944         0.00000000       0.00000000       0.00000000          1
H         4.49634855      11.22079188      13.91441230         0.00000000       0.00000000       0.00000000          1
H         2.98764582       8.02007879      12.15718986         0.00000000       0.00000000       0.00000000          1
H         2.41127349       9.45157665      14.48589968         0.00000000       0.00000000       0.00000000          1
H         2.49209963      10.76607829      12.02219096         0.00000000       0.00000000       0.00000000          1
6
pbc=[F, F, F] list_num_par=6 frozen=false iter=20000 energy=-1.26974174 Lattice="15.00000000 0.00000000 0.00000000 0.00000000 15.00000000 0.00000000 0.00000000 0.00000000 15.00000000" energy_frozen_part=0.00000000 Properties=species:S:1:pos:R:3:velocities:R:3:Z:I:1
H         9.82926885       8.27281945      13.14230256         0.00000000       0.00000000       0.00000000          1
H        11.14520515       9.08532081      10.81583464         0.00000000       0.00000000       0.00000000          1
H        10.57936530      11.75187172      11.42705058         0.00000000       0.00000000       0.00000000          1
H         9.26344024      10.93937704      13.75351756         0.00000000       0.00000000       0.00000000          1
H         8.50837219       9.88272674      11.28012704         0.00000000       0.00000000       0.00000000          1
H        11.90026395      10.14195993      13.28922792         0.00000000       0.00000000       0.00000000          1
6
pbc=[F, F, F] list_num_par=6 frozen=false iter=20000 energy=-1.26974174 Lattice="15.00000000 0.00000000 0.00000000 0.00000000 15.00000000 0.00000000 0.00000000 0.00000000 15.00000000" energy_frozen_part=0.00000000 Properties=species:S:1:pos:R:3:velocities:R:3:Z:I:1
H         4.99193493       8.47480628      14.04935639         0.00000000       0.00000000       0.00000000          1
H         5.07274336       9.78938568      11.58569009         0.00000000       0.00000000       0.00000000          1
H         4.49633811      11.22079981      13.91443644         0.00000000       0.00000000       0.00000000          1
H         2.98769421       8.02012046      12.15711599         0.00000000       0.00000000       0.00000000          1
H         2.41128625       9.45153694      14.48587148         0.00000000       0.00000000       0.00000000          1
H         2.49209224      10.76610602      12.02220501         0.00000000       0.00000000       0.00000000          1
6
pbc=[F, F, F] list_num_par=6 frozen=false iter=20000 energy=-1.26974174 Lattice="15.00000000 0.00000000 0.00000000 0.00000000 15.00000000 0.00000000 0.00000000 0.00000000 15.00000000" energy_frozen_part=0.00000000 Properties=species:S:1:pos:R:3:velocities:R:3:Z:I:1
H         9.82925904       8.27279785      13.14230150         0.00000000       0.00000000       0.00000000          1
H        11.14518890       9.08531398      10.81583546         0.00000000       0.00000000       0.00000000          1
H        10.57934211      11.75186426      11.42707436         0.00000000       0.00000000       0.00000000          1
H         9.26342344      10.93934967      13.75353627         0.00000000       0.00000000       0.00000000          1
H         8.50835735       9.88271495      11.28013636         0.00000000       0.00000000       0.00000000          1
H        11.90024898      10.14194220      13.28924025         0.00000000       0.00000000       0.00000000          1
6
pbc=[F, F, F] list_num_par=6 frozen=false iter=20000 energy=-1.26974174 Lattice="15.00000000 0.00000000 0.00000000 0.00000000 15.00000000 0.00000000 0.00000000 0.00000000 15.00000000" energy_frozen_part=0.00000000 Properties=species:S:1:pos:R:3:velocities:R:3:Z:I:1
H         9.85113169       8.21525723      13.09098096         0.00000000       0.00000000       0.00000000          1
H        11.16035433       9.07420274      10.77745228         0.00000000       0.00000000       0.00000000          1
H        10.54648864      11.72417399      11.41391724         0.00000000       0.00000000       0.00000000          1
H         9.23726851      10.86523230      13.72744876         0.00000000       0.00000000       0.00000000          1
H         8.50863135       9.82115950      11.24082877         0.00000000       0.00000000       0.00000000          1
H        11.88898921      10.11827874      13.26407932         0.00000000       0.00000000       0.00000000          1
6
pbc=[F, F, F] list_num_par=6 frozen=false iter=20000 energy=-1.26974174 Lattice="15.00000000 0.00000000 0.00000000 0.00000000 15.00000000 0.00000000 0.00000000 0.00000000 15.00000000" energy_frozen_part=0.00000000 Properties=species:S:1:pos:R:3:velocities:R:3:Z:I:1
H         9.82922186       8.27280391      13.14234228         0.00000000       0.00000000       0.00000000          1
H        11.14512828       9.08527262      10.81584413         0.00000000       0.00000000       0.00000000          1
H        10.57932482      11.75183899      11.42704287         0.00000000       0.00000000       0.00000000          1
H         9.26341249      10.93936866      13.75354071         0.00000000       0.00000000       0.00000000          1
H         8.50831536       9.88271065      11.28016712         0.00000000       0.00000000       0.00000000          1
H        11.90022979      10.14192925      13.28921628         0.00000000       0.00000000       0.00000000          1
6
pbc=[F, F, F] list_num_par=6 frozen=false iter=20000 energy=-1.26974174 Lattice="15.00000000 0.00000000 0.00000000 0.00000000 15.00000000 0.00000000 0.00000000 0.00000000 15.00000000" energy_frozen_part=0.00000000 Properties=species:S:1:pos:R:3:velocities:R:3:Z:I:1
H         9.82922556       8.27282508      13.14235429         0.00000000       0.00000000       0.00000000          1
H        11.14511880       9.08528093      10.81584664         0.00000000       0.00000000       0.00000000          1
H        10.57930830      11.75184965      11.42703077         0.00000000       0.00000000       0.00000000          1
H         9.26342160      10.93939540      13.75354365         0.00000000       0.00000000       0.00000000          1
H         8.50830763       9.88272306      11.28018064         0.00000000       0.00000000       0.00000000          1
H        11.90022631      10.14195765      13.28921158         0.00000000       0.00000000       0.00000000          1
6
pbc=[F, F, F] list_num_par=6 frozen=false iter=20000 energy=-1.26974174 Lattice="15.00000000 0.00000000 0.00000000 0.00000000 15.00000000 0.00000000 0.00000000 0.00000000 15.00000000" energy_frozen_part=0.00000000 Properties=species:S:1:pos:R:3:velocities:R:3:Z:I:1
H         4.99195036       8.47482572      14.04935918         0.00000000       0.00000000       0.00000000          1
H         5.07274039       9.78937943      11.58568383         0.00000000       0.00000000       0.00000000          1
H         4.49632486      11.22081305      13.91442410         0.00000000       0.00000000       0.00000000          1
H         2.98769641       8.02010593      12.15713977         0.00000000       0.00000000       0.00000000          1
H         2.41129511       9.45153817      14.48588302         0.00000000       0.00000000       0.00000000          1
H         2.49208340      10.76609267      12.02220114         0.00000000       0.00000000       0.00000000          1
6
pbc=[F, F, F] list_num_par=6 frozen=false iter=20000 energy=-1.26974174 Lattice="15.00000000 0.00000000 0.00000000 0.00000000 15.00000000 0.00000000 0.00000000 0.00000000 15.00000000" energy_frozen_part=0.00000000 Properties=species:S:1:pos:R:3:velocities:R:3:Z:I:1
H         9.82926618       8.27280131      13.14230598         0.00000000       0.00000000       0.00000000          1
H        11.14518814       9.08531858      10.81583490         0.00000000       0.00000000       0.00000000          1
H        10.57934720      11.75186680      11.42706891         0.00000000       0.00000000       0.00000000          1
H         9.26342700      10.93935803      13.75354099         0.00000000       0.00000000       0.00000000          1
H         8.50836589       9.88272130      11.28014275         0.00000000       0.00000000       0.00000000          1
H        11.90025394      10.14194428      13.28923416         0.00000000       0.00000000       0.00000000          1
6
pbc=[F, F, F] list_num_par=6 frozen=false iter=20000 energy=-1.26974174 Lattice="15.00000000 0.00000000 0.00000000 0.00000000 15.00000000 0.00000000 0.00000000 0.00000000 15.00000000" energy_frozen_part=0.00000000 Properties=species:S:1:pos:R:3:velocities:R:3:Z:I:1
H         9.82925796       8.27281589      13.14227999         0.00000000       0.00000000       0.00000000          1
H        11.14522048       9.08534094      10.81583923         0.00000000       0.00000000       0.00000000          1
H        10.57941872      11.75188807      11.42710203         0.00000000       0.00000000       0.00000000          1
H         9.26344895      10.93936924      13.75354533         0.00000000       0.00000000       0.00000000          1
H         8.50839817       9.88278306      11.28012608         0.00000000       0.00000000       0.00000000          1
H        11.90026805      10.14192289      13.28926250         0.00000000       0.00000000       0.00000000          1
6
pbc=[F, F, F] list_num_par=6 frozen=false iter=20000 energy=-1.26974174 Lattice="15.00000000 0.00000000 0.00000000 0.00000000 15.00000000 0.00000000 0.00000000 0.00000000 15.00000000" energy_frozen_part=0.00000000 Properties=species:S:1:pos:R:3:velocities:R:3:Z:I:1
H         9.82922558       8.27283012      13.14234873         0.00000000       0.00000000       0.00000000          1
H        11.14512092       9.08527110      10.81584591         0.00000000       0.00000000       0.00000000          1
H        10.57932886      11.75184897      11.42702471         0.00000000       0.00000000       0.00000000          1
H         9.26342921      10.93940682      13.75353321         0.00000000       0.00000000       0.00000000          1
H         8.50830867       9.88272710      11.28017294         0.00000000       0.00000000       0.00000000          1
H        11.90023447      10.14195430      13.28920356         0.00000000       0.00000000       0.00000000          1
6
pbc=[F, F, F] list_num_par=6 frozen=false iter=20000 energy=-1.26974174 Lattice="15.00000000 0.00000000 0.00000000 0.00000000 15.00000000 0.00000000 0.00000000 0.00000000 15.00000000" energy_frozen_part=0.00000000 Properties=species:S:1:pos:R:3:velocities:R:3:Z:I:1
H         4.99194894       8.47480427      14.04936442         0.00000000       0.00000000       0.00000000          1
H         5.07271950       9.78934704      11.58567615         0.00000000       0.00000000       0.00000000          1
H         4.49637169      11.22079917      13.91441634         0.00000000       0.00000000       0.00000000          1
H         2.98766822       8.02010047      12.15716373         0.00000000       0.00000000       0.00000000          1
H         2.41131697       9.45155740      14.48590942         0.00000000       0.00000000       0.00000000          1
H         2.49208904      10.76609404      12.02222560         0.00000000       0.00000000       0.00000000          1
6
pbc=[F, F, F] list_num_par=6 frozen=false iter=20000 energy=-1.26974174 Lattice="15.00000000 0.00000000 0.00000000 0.00000000 15.00000000 0.00000000 0.00000000 0.00000000 15.00000000" energy_frozen_part=0.00000000 Properties=species:S:1:pos:R:3:velocities:R:3:Z:I:1
H         4.99194933       8.47480581      14.04934920         0.00000000       0.00000000       0.00000000          1
H         5.07265139       9.78934117      11.58565989         0.00000000       0.00000000       0.00000000          1
H         4.49635158      11.22079098      13.91441443         0.00000000       0.00000000       0.00000000          1
H         2.98762505       8.02008194      12.15721656         0.00000000       0.00000000       0.00000000          1
H         2.41132371       9.45153660      14.48597351         0.00000000       0.00000000       0.00000000          1
H         2.49201591      10.76607136      12.02228578         0.00000000       0.00000000       0.00000000          1
6
pbc=[F, F, F] list_num_par=6 frozen=false iter=20000 energy=-1.26974174 Lattice="15.00000000 0.00000000 0.00000000 0.00000000 15.00000000 0.00000000 0.00000000 0.00000000 15.00000000" energy_frozen_part=0.00000000 Properties=species:S:1:pos:R:3:velocities:R:3:Z:I:1
H         9.85114259       8.21525420      13.09098009         0.00000000       0.00000000       0.00000000          1
H        11.16037379       9.07419808      10.77745692         0.00000000       0.00000000       0.00000000          1