6
pbc=[F, F, F] list_num_par=6 frozen=false iter=20000 energy=-1.26974174 Lattice="15.00000000 0.00000000 0.00000000 0.00000000 15.00000000 0.00000000 0.00000000 0.00000000 15.00000000" energy_frozen_part=0.00000000 Properties=species:S:1:pos:R:3:velocities:R:3:Z:I:1
H         6.08645392       3.96619846       6.21666578         0.00000000       0.00000000       0.00000000          1
H         7.71316917       4.94624808       8.26546771         0.00000000       0.00000000       0.00000000          1
H         4.71175595       2.38506462       8.06449607         0.00000000       0.00000000       0.00000000          1
H         6.33846515       3.36511173      10.11329441         0.00000000       0.00000000       0.00000000          1
H         4.93412139       5.13939197       8.47499661         0.00000000       0.00000000       0.00000000          1
H         7.49079536       2.19192088       7.85496617         0.00000000       0.00000000       0.00000000          1
6
pbc=[F, F, F] list_num_par=6 frozen=false iter=20000 energy=-1.26974174 Lattice="15.00000000 0.00000000 0.00000000 0.00000000 15.00000000 0.00000000 0.00000000 0.00000000 15.00000000" energy_frozen_part=0.00000000 Properties=species:S:1:pos:R:3:velocities:R:3:Z:I:1
H         6.08654229       3.96596372       6.21671552         0.00000000       0.00000000       0.00000000          1
H         7.71312381       4.94619970       8.26553499         0.00000000       0.00000000       0.00000000          1
H         4.71179783       2.38490836       8.06457922         0.00000000       0.00000000       0.00000000          1
H         6.33836840       3.36514821      10.11340293         0.00000000       0.00000000       0.00000000          1
H         4.93406267       5.13927345       8.47490471         0.00000000       0.00000000       0.00000000          1
H         7.49085133       2.19183186       7.85520950         0.00000000       0.00000000       0.00000000          1
6
pbc=[F, F, F] list_num_par=6 frozen=false iter=20000 energy=-1.26974174 Lattice="15.00000000 0.00000000 0.00000000 0.00000000 15.00000000 0.00000000 0.00000000 0.00000000 15.00000000" energy_frozen_part=0.00000000 Properties=species:S:1:pos:R:3:velocities:R:3:Z:I:1
H         6.08654233       3.96596602       6.21671700         0.00000000       0.00000000       0.00000000          1
H         7.71311221       4.94619990       8.26555139         0.00000000       0.00000000       0.00000000          1
H         4.71179510       2.38489753       8.06457870         0.00000000       0.00000000       0.00000000          1
H         6.33836816       3.36513039      10.11340933         0.00000000       0.00000000       0.00000000          1
H         4.93405195       5.13925354       8.47490940         0.00000000       0.00000000       0.00000000          1
H         7.49084964       2.19183677       7.85520845         0.00000000       0.00000000       0.00000000          1
6
pbc=[F, F, F] list_num_par=6 frozen=false iter=20000 energy=-1.26974174 Lattice="15.00000000 0.00000000 0.00000000 0.00000000 15.00000000 0.00000000 0.00000000 0.00000000 15.00000000" energy_frozen_part=0.00000000 Properties=species:S:1:pos:R:3:velocities:R:3:Z:I:1
H         6.08653857       3.96598321       6.21672665         0.00000000       0.00000000       0.00000000          1
H         7.71311516       4.94620460       8.26555893         0.00000000       0.00000000       0.00000000          1
H         4.71180391       2.38490219       8.06458658         0.00000000       0.00000000       0.00000000          1
H         6.33837564       3.36512433      10.11341754         0.00000000       0.00000000       0.00000000          1
H         4.93405563       5.13926061       8.47492834         0.00000000       0.00000000       0.00000000          1
H         7.49085803       2.19184977       7.85521177         0.00000000       0.00000000       0.00000000          1
6
pbc=[F, F, F] list_num_par=6 frozen=false iter=20000 energy=-1.26974174 Lattice="15.00000000 0.00000000 0.00000000 0.00000000 15.00000000 0.00000000 0.00000000 0.00000000 15.00000000" energy_frozen_part=0.00000000 Properties=species:S:1:pos:R:3:velocities:R:3:Z:I:1
H         6.33421423       3.35675036       6.38435630         0.00000000       0.00000000       0.00000000          1
H         8.36856941       5.21911622       6.82851164         0.00000000       0.00000000       0.00000000          1
H         6.49207896       2.54771572       9.05359269         0.00000000       0.00000000       0.00000000          1
H         8.52643663       4.41008715       9.49774391         0.00000000       0.00000000       0.00000000          1
H         6.08111136       5.24013309       8.43206296         0.00000000       0.00000000       0.00000000          1
H         8.77953457       2.52670430       7.45004678         0.00000000       0.00000000       0.00000000          1
6
pbc=[F, F, F] list_num_par=6 frozen=false iter=20000 energy=-1.26974174 Lattice="15.00000000 0.00000000 0.00000000 0.00000000 15.00000000 0.00000000 0.00000000 0.00000000 15.00000000" energy_frozen_part=0.00000000 Properties=species:S:1:pos:R:3:velocities:R:3:Z:I:1
H         6.08656594       3.96601936       6.21672279         0.00000000       0.00000000       0.00000000          1
H         7.71311150       4.94622647       8.26558998         0.00000000       0.00000000       0.00000000          1
H         4.71180321       2.38491560       8.06454501         0.00000000       0.00000000       0.00000000          1
H         6.33834303       3.36512783      10.11340893         0.00000000       0.00000000       0.00000000          1
H         4.93404400       5.13927022       8.47492273         0.00000000       0.00000000       0.00000000          1
H         7.49086851       2.19186785       7.85521353         0.00000000       0.00000000       0.00000000          1
6
pbc=[F, F, F] list_num_par=6 frozen=false iter=20000 energy=-1.26974174 Lattice="15.00000000 0.00000000 0.00000000 0.00000000 15.00000000 0.00000000 0.00000000 0.00000000 15.00000000" energy_frozen_part=0.00000000 Properties=species:S:1:pos:R:3:velocities:R:3:Z:I:1
H         6.08615714       3.96632192       6.21681504         0.00000000       0.00000000       0.00000000          1
H         7.71323980       4.94646390       8.26528936         0.00000000       0.00000000       0.00000000          1
H         4.71171950       2.38533801       8.06497923         0.00000000       0.00000000       0.00000000          1
H         6.33879000       3.36548876      10.11344958         0.00000000       0.00000000       0.00000000          1
H         4.93423529       5.13969003       8.47525592         0.00000000       0.00000000       0.00000000          1
H         7.49072283       2.19212026       7.85501133         0.00000000       0.00000000       0.00000000          1
6
pbc=[F, F, F] list_num_par=6 frozen=false iter=20000 energy=-1.26974174 Lattice="15.00000000 0.00000000 0.00000000 0.00000000 15.00000000 0.00000000 0.00000000 0.00000000 15.00000000" energy_frozen_part=0.00000000 Properties=species:S:1:pos:R:3:velocities:R:3:Z:I:1
H         6.33447676       3.35672091       6.38435545         0.00000000       0.00000000       0.00000000          1
H         8.36883623       5.21904392       6.82868269         0.00000000       0.00000000       0.00000000          1
H         6.49215001       2.54765205       9.05359777         0.00000000       0.00000000       0.00000000          1
H         8.52650498       4.40997955       9.49791458         0.00000000       0.00000000       0.00000000          1
H         6.08126656       5.24007304       8.43207392         0.00000000       0.00000000       0.00000000          1
H         8.77971460       2.52661412       7.45020340         0.00000000       0.00000000       0.00000000          1
6
pbc=[F, F, F] list_num_par=6 frozen=false iter=20000 energy=-1.26974174 Lattice="15.00000000 0.00000000 0.00000000 0.00000000 15.00000000 0.00000000 0.00000000 0.00000000 15.00000000" energy_frozen_part=0.00000000 Properties=species:S:1:pos:R:3:velocities:R:3:Z:I:1
H         6.08645499       3.96592744       6.21666391         0.00000000       0.00000000       0.00000000          1
H         7.71305222       4.94606178       8.26551344         0.00000000       0.00000000       0.00000000          1
H         4.71166386       2.38484880       8.06448081         0.00000000       0.00000000       0.00000000          1
H         6.33826873       3.36498265      10.11332248         0.00000000       0.00000000       0.00000000          1
H         4.93399551       5.13919412       8.47488775         0.00000000       0.00000000       0.00000000          1
H         7.49071727       2.19171516       7.85509803         0.00000000       0.00000000       0.00000000          1
6
pbc=[F, F, F] list_num_par=6 frozen=false iter=20000 energy=-1.26974174 Lattice="15.00000000 0.00000000 0.00000000 0.00000000 15.00000000 0.00000000 0.00000000 0.00000000 15.00000000" energy_frozen_part=0.00000000 Properties=species:S:1:pos:R:3:velocities:R:3:Z:I:1
H         6.08645561       3.96585142       6.21668576         0.00000000       0.00000000       0.00000000          1
H         7.71302673       4.94602312       8.26554893         0.00000000       0.00000000       0.00000000          1
H         4.71162881       2.38482464       8.06451408         0.00000000       0.00000000       0.00000000          1
H         6.33818853       3.36499046      10.11337866         0.00000000       0.00000000       0.00000000          1
H         4.93397159       5.13918049       8.47486340         0.00000000       0.00000000       0.00000000          1
H         7.49068115       2.19167251       7.85519699         0.00000000       0.00000000       0.00000000          1
6
pbc=[F, F, F] list_num_par=6 frozen=false iter=20000 energy=-1.26974174 Lattice="15.00000000 0.00000000 0.00000000 0.00000000 15.00000000 0.00000000 0.00000000 0.00000000 15.00000000" energy_frozen_part=0.00000000 Properties=species:S:1:pos:R:3:velocities:R:3:Z:I:1
H         6.08647059       3.96622290       6.21667682         0.00000000       0.00000000       0.00000000          1
H         7.71315253       4.94626851       8.26550166         0.00000000       0.00000000       0.00000000          1
H         4.71177082       2.38504029       8.06447936         0.00000000       0.00000000       0.00000000          1
H         6.33845877       3.36509783      10.11330624         0.00000000       0.00000000       0.00000000          1
H         4.93410491       5.13937226       8.47500114         0.00000000       0.00000000       0.00000000          1
H         7.49081505       2.19193928       7.85497694         0.00000000       0.00000000       0.00000000          1
6
pbc=[F, F, F] list_num_par=6 frozen=false iter=20000 energy=-1.26974174 Lattice="15.00000000 0.00000000 0.00000000 0.00000000 15.00000000 0.00000000 0.00000000 0.00000000 15.00000000" energy_frozen_part=0.00000000 Properties=species:S:1:pos:R:3:velocities:R:3:Z:I:1
H         6.08646389       3.96596571       6.21670257         0.00000000       0.00000000       0.00000000          1
H         7.71309532       4.94611616       8.26551870         0.00000000       0.00000000       0.00000000          1
H         4.71173441       2.38487016       8.06455487         0.00000000       0.00000000       0.00000000          1
H         6.33836440       3.36501778      10.11337250         0.00000000       0.00000000       0.00000000          1
H         4.93404077       5.13921605       8.47495810         0.00000000       0.00000000       0.00000000          1
H         7.49078176       2.19176651       7.85511779         0.00000000       0.00000000       0.00000000          1
6
pbc=[F, F, F] list_num_par=6 frozen=false iter=20000 energy=-1.26974174 Lattice="15.00000000 0.00000000 0.00000000 0.00000000 15.00000000 0.00000000 0.00000000 0.00000000 15.00000000" energy_frozen_part=0.00000000 Properties=species:S:1:pos:R:3:velocities:R:3:Z:I:1
H         6.08616627       3.96632158       6.21681529         0.00000000       0.00000000       0.00000000          1
H         7.71324399       4.94646737       8.26528322         0.00000000       0.00000000       0.00000000          1
H         4.71172957       2.38534665       8.06498206         0.00000000       0.00000000       0.00000000          1
H         6.33881022       3.36549774      10.11344565         0.00000000       0.00000000       0.00000000          1
H         4.93423545       5.13969472       8.47525097         0.00000000       0.00000000       0.00000000          1
H         7.49072821       2.19211420       7.85501238         0.00000000       0.00000000       0.00000000          1
6
pbc=[F, F, F] list_num_par=6 frozen=false iter=20000 energy=-1.26974174 Lattice="15.00000000 0.00000000 0.00000000 0.00000000 15.00000000 0.00000000 0.00000000 0.00000000 15.00000000" energy_frozen_part=0.00000000 Properties=species:S:1:pos:R:3:velocities:R:3:Z:I:1
H         6.08646658       3.96618659       6.21666362         0.00000000       0.00000000       0.00000000          1
H         7.71319779       4.94623960       8.26545463         0.00000000       0.00000000       0.00000000          1
H         4.71176733       2.38505798       8.06450500         0.00000000       0.00000000       0.00000000          1
H         6.33848662       3.36510906      10.11329644         0.00000000       0.00000000       0.00000000          1
H         4.93415395       5.13938719       8.47498664         0.00000000       0.00000000       0.00000000          1
H         7.49081079       2.19190729       7.85496796         0.00000000       0.00000000       0.00000000          1
6
pbc=[F, F, F] list_num_par=6 frozen=false iter=20000 energy=-1.26974174 Lattice="15.00000000 0.00000000 0.00000000 0.00000000 15.00000000 0.00000000 0.00000000 0.00000000 15.00000000" energy_frozen_part=0.00000000 Properties=species:S:1:pos:R:3:velocities:R:3:Z:I:1
H         6.08644007       3.96592499       6.21666782         0.00000000       0.00000000       0.00000000          1
H         7.71305020       4.94607020       8.26550647         0.00000000       0.00000000       0.00000000          1
H         4.71165336       2.38485337       8.06449323         0.00000000       0.00000000       0.00000000          1
H         6.33827040       3.36499177      10.11333551         0.00000000       0.00000000       0.00000000          1
H         4.93399912       5.13919742       8.47489990         0.00000000       0.00000000       0.00000000          1
H         7.49070841       2.19171597       7.85510629         0.00000000       0.00000000       0.00000000          1
6
pbc=[F, F, F] list_num_par=6 frozen=false iter=20000 energy=-1.26974174 Lattice="15.00000000 0.00000000 0.00000000 0.00000000 15.00000000 0.00000000 0.00000000 0.00000000 15.00000000" energy_frozen_part=0.00000000 Properties=species:S:1:pos:R:3:velocities:R:3:Z:I:1
H         6.08652949       3.96598344       6.21673246         0.00000000       0.00000000       0.00000000          1
H         7.71310971       4.94620244       8.26555569         0.00000000       0.00000000       0.00000000          1
H         4.71180133       2.38490269       8.06458846         0.00000000       0.00000000       0.00000000          1
H         6.33838529       3.36512132      10.11341356         0.00000000       0.00000000       0.00000000          1
H         4.93405034       5.13926284       8.47494623         0.00000000       0.00000000       0.00000000          1
H         7.49085367       2.19184009       7.85520409         0.00000000       0.00000000       0.00000000          1
6
pbc=[F, F, F] list_num_par=6 frozen=false iter=20000 energy=-1.26974174 Lattice="15.00000000 0.00000000 0.00000000 0.00000000 15.00000000 0.00000000 0.00000000 0.00000000 15.00000000" energy_frozen_part=0.00000000 Properties=species:S:1:pos:R:3:velocities:R:3:Z:I:1
H         6.08648110       3.96622165       6.21664796         0.00000000       0.00000000       0.00000000          1
H         7.71315580       4.94626305       8.26548033         0.00000000       0.00000000       0.00000000          1
H         4.71176849       2.38503956       8.06443758         0.00000000       0.00000000       0.00000000          1
H         6.33844816       3.36507299      10.11327255         0.00000000       0.00000000       0.00000000          1
H         4.93411063       5.13936212       8.47497478         0.00000000       0.00000000       0.00000000          1
H         7.49082231       2.19193745       7.85494016         0.00000000       0.00000000       0.00000000          1
6
pbc=[F, F, F] list_num_par=6 frozen=false iter=20000 energy=-1.26974174 Lattice="15.00000000 0.00000000 0.00000000 0.00000000 15.00000000 0.00000000 0.00000000 0.00000000 15.00000000" energy_frozen_part=0.00000000 Properties=species:S:1:pos:R:3:velocities:R:3:Z:I:1
H         6.08644347       3.96596754       6.21672134         0.00000000       0.00000000       0.00000000          1
H         7.71306540       4.94617166       8.26552849         0.00000000       0.00000000       0.00000000          1
H         4.71173809       2.38486630       8.06457850         0.00000000       0.00000000       0.00000000          1
H         6.33834992       3.36507198      10.11338441         0.00000000       0.00000000       0.00000000          1
H         4.93400675       5.13922142       8.47495275         0.00000000       0.00000000       0.00000000          1
H         7.49079897       2.19181839       7.85515188         0.00000000       0.00000000       0.00000000          1
6
pbc=[F, F, F] list_num_par=6 frozen=false iter=20000 energy=-1.26974174 Lattice="15.00000000 0.00000000 0.00000000 0.00000000 15.00000000 0.00000000 0.00000000 0.00000000 15.00000000" energy_frozen_part=0.00000000 Properties=species:S:1:pos:R:3:velocities:R:3:Z:I:1
H         6.08643867       3.96592312       6.21664716         0.00000000       0.00000000       0.00000000          1
H         7.71304887       4.94603433       8.26550504         0.00000000       0.00000000       0.00000000          1
H         4.71163679       2.38485749       8.06446683         0.00000000       0.00000000       0.00000000          1
H         6.33825382       3.36495948      10.11331504         0.00000000       0.00000000       0.00000000          1
H         4.93399774       5.13918935       8.47488128         0.00000000       0.00000000       0.00000000          1
H         7.49068790       2.19169303       7.85508213         0.00000000       0.00000000       0.00000000          1
6
pbc=[F, F, F] list_num_par=6 frozen=false iter=20000 energy=-1.26974174 Lattice="15.00000000 0.00000000 0.00000000 0.00000000 15.00000000 0.00000000 0.00000000 0.00000000 15.00000000" energy_frozen_part=0.00000000 Properties=species:S:1:pos:R:3:velocities:R:3:Z:I:1
H         6.08613747       3.96632835       6.21682524         0.00000000       0.00000000       0.00000000          1
H         7.71321149       4.94649794       8.26527383         0.00000000       0.00000000       0.00000000          1
H         4.71173064       2.38533117       8.06499562         0.00000000       0.00000000       0.00000000          1
H         6.33880837       3.36549695      10.11345165         0.00000000       0.00000000       0.00000000          1
H         4.93420823       5.13968659       8.47527134         0.00000000       0.00000000       0.00000000          1
H         7.49073482       2.19214719       7.85500634         0.00000000       0.00000000       0.00000000          1
6
pbc=[F, F, F] list_num_par=6 frozen=false iter=20000 energy=-1.26974174 Lattice="15.00000000 0.00000000 0.00000000 0.00000000 15.00000000 0.00000000 0.00000000 0.00000000 15.00000000" energy_frozen_part=0.00000000 Properties=species:S:1:pos:R:3:velocities:R:3:Z:I:1
H         6.08649734       3.96621456       6.21662329         0.00000000       0.00000000       0.00000000          1
H         7.71316698       4.94623145       8.26547690         0.00000000       0.00000000       0.00000000          1
H         4.71177310       2.38503408       8.06440350         0.00000000       0.00000000       0.00000000          1
H         6.33844436       3.36504979      10.11325047         0.00000000       0.00000000       0.00000000          1
H         4.93412166       5.13934957       8.47495641         0.00000000       0.00000000       0.00000000          1
H         7.49081289       2.19190794       7.85492072         0.00000000       0.00000000       0.00000000          1
6
pbc=[F, F, F] list_num_par=6 frozen=false iter=20000 energy=-1.26974174 Lattice="15.00000000 0.00000000 0.00000000 0.00000000 15.00000000 0.00000000 0.00000000 0.00000000 15.00000000" energy_frozen_part=0.00000000 Properties=species:S:1:pos:R:3:velocities:R:3:Z:I:1
H         6.08642348       3.96623304       6.21665295         0.00000000       0.00000000       0.00000000          1
H         7.71313476       4.94625669       8.26546637         0.00000000       0.00000000       0.00000000          1
H         4.71174554       2.38504052       8.06445260         0.00000000       0.00000000       0.00000000          1
H         6.33846256       3.36505076      10.11326987         0.00000000       0.00000000       0.00000000          1
H         4.93409112       5.13936428       8.47501511         0.00000000       0.00000000       0.00000000          1
H         7.49078990       2.19193310       7.85490956         0.00000000       0.00000000       0.00000000          1
6
pbc=[F, F, F] list_num_par=6 frozen=false iter=20000 energy=-1.26974174 Lattice="15.00000000 0.00000000 0.00000000 0.00000000 15.00000000 0.00000000 0.00000000 0.00000000 15.00000000" energy_frozen_part=0.00000000 Properties=species:S:1:pos:R:3:velocities:R:3:Z:I:1
H         6.08648028       3.96622262       6.21664427         0.00000000       0.00000000       0.00000000          1
H         7.71316451       4.94625579       8.26548552         0.00000000       0.00000000       0.00000000          1
H         4.71177440       2.38503245       8.06443786         0.00000000       0.00000000       0.00000000          1
H         6.33846126       3.36505904      10.11327301         0.00000000       0.00000000       0.00000000          1
H         4.93411899       5.13935485       8.47498932         0.00000000       0.00000000       0.00000000          1
H         7.49082124       2.19193494       7.85492889         0.00000000       0.00000000       0.00000000          1
6
pbc=[F, F, F] list_num_par=6 frozen=false iter=20000 energy=-1.26974174 Lattice="15.00000000 0.00000000 0.00000000 0.00000000 15.00000000 0.00000000 0.00000000 0.00000000 15.00000000" energy_frozen_part=0.00000000 Properties=species:S:1:pos:R:3:velocities:R:3:Z:I:1
H         6.08645946       3.96621859       6.21667713         0.00000000       0.00000000       0.00000000          1
H         7.71314976       4.94627311       8.26549363         0.00000000       0.00000000       0.00000000          1
H         4.71177435       2.38504309       8.06448914         0.00000000       0.00000000       0.00000000          1
H         6.33845756       3.36510356      10.11330226         0.00000000       0.00000000       0.00000000          1
H         4.93410290       5.13936995       8.47500414         0.00000000       0.00000000       0.00000000          1
H         7.49081887       2.19194084       7.85497074         0.00000000       0.00000000       0.00000000          1
6
pbc=[F, F, F] list_num_par=6 frozen=false iter=20000 energy=-1.26974174 Lattice="15.00000000 0.00000000 0.00000000 0.00000000 15.00000000 0.00000000 0.00000000 0.00000000 15.00000000" energy_frozen_part=0.00000000 Properties=species:S:1:pos:R:3:velocities:R:3:Z:I:1
H         6.08644285       3.96623539       6.21664919         0.00000000       0.00000000       0.00000000          1
H         7.71314937       4.94627275       8.26546140         0.00000000       0.00000000       0.00000000          1
H         4.71178556       2.38502789       8.06445072         0.00000000       0.00000000       0.00000000          1
H         6.33849054       3.36505814      10.11326788         0.00000000       0.00000000       0.00000000          1
H         4.93410476       5.13935657       8.47501180         0.00000000       0.00000000       0.00000000          1
H         7.49083196       2.19194294       7.85490324         0.00000000       0.00000000       0.00000000          1
6
pbc=[F, F, F] list_num_par=6 frozen=false iter=20000 energy=-1.26974174 Lattice="15.00000000 0.00000000 0.00000000 0.00000000 15.00000000 0.00000000 0.00000000 0.00000000 15.00000000" energy_frozen_part=0.00000000 Properties=species:S:1:pos:R:3:velocities:R:3:Z:I:1
H         6.08656565       3.96601418       6.21673016         0.00000000       0.00000000       0.00000000          1
H         7.71312337       4.94620805       8.26558781         0.00000000       0.00000000       0.00000000          1
H         4.71180285       2.38491272       8.06454617         0.00000000       0.00000000       0.00000000          1
H         6.33834714       3.36511736      10.11340741         0.00000000       0.00000000       0.00000000          1
H         4.93405710       5.13926856       8.47493124         0.00000000       0.00000000       0.00000000          1
H         7.49086323       2.19186007       7.85520309         0.00000000       0.00000000       0.00000000          1
6
pbc=[F, F, F] list_num_par=6 frozen=false iter=20000 energy=-1.26974174 Lattice="15.00000000 0.00000000 0.00000000 0.00000000 15.00000000 0.00000000 0.00000000 0.00000000 15.00000000" energy_frozen_part=0.00000000 Properties=species:S:1:pos:R:3:velocities:R:3:Z:I:1
H         6.08634780       3.96710856       6.21750470         0.00000000       0.00000000       0.00000000          1
H         7.71415066       4.94567284       8.26615601         0.00000000       0.00000000       0.00000000          1
H         4.71133626       2.38612140       8.06522629         0.00000000       0.00000000       0.00000000          1
H         6.33913599       3.36468320      10.11388471         0.00000000       0.00000000       0.00000000          1
H         4.93526756       5.14019991       8.47651725         0.00000000       0.00000000       0.00000000          1
H         7.49021732       2.19159270       7.85487104         0.00000000       0.00000000       0.00000000          1
6
pbc=[F, F, F] list_num_par=6 frozen=false iter=20000 energy=-1.26974174 Lattice="15.00000000 0.00000000 0.00000000 0.00000000 15.00000000 0.00000000 0.00000000 0.00000000 15.00000000" energy_frozen_part=0.00000000 Properties=species:S:1:pos:R:3:velocities:R:3:Z:I:1
H         6.08655855       3.96596104       6.21672401         0.00000000       0.00000000       0.00000000          1
H         7.71312937       4.94619674       8.26556020         0.00000000       0.00000000       0.00000000          1
H         4.71179557       2.38490089       8.06457708         0.00000000       0.00000000       0.00000000          1
H         6.33836236       3.36512689      10.11341136         0.00000000       0.00000000       0.00000000          1
H         4.93406619       5.13925910       8.47491250         0.00000000       0.00000000       0.00000000          1
H         7.49086039       2.19183651       7.85522045         0.00000000       0.00000000       0.00000000          1
6
pbc=[F, F, F] list_num_par=6 frozen=false iter=20000 energy=-1.26974174 Lattice="15.00000000 0.00000000 0.00000000 0.00000000 15.00000000 0.00000000 0.00000000 0.00000000 15.00000000" energy_frozen_part=0.00000000 Properties=species:S:1:pos:R:3:velocities:R:3:Z:I:1
H         6.08643294       3.96624128       6.21665648         0.00000000       0.00000000       0.00000000          1
H         7.71315851       4.94625667       8.26546533         0.00000000       0.00000000       0.00000000          1
H         4.71176665       2.38503951       8.06446427         0.00000000       0.00000000       0.00000000          1
H         6.33848709       3.36505511      10.11327358         0.00000000       0.00000000       0.00000000          1
H         4.93411426       5.13936425       8.47501695         0.00000000       0.00000000       0.00000000          1
H         7.49080658       2.19193632       7.85490198         0.00000000       0.00000000       0.00000000          1
6
pbc=[F, F, F] list_num_par=6 frozen=false iter=20000 energy=-1.26974174 Lattice="15.00000000 0.00000000 0.00000000 0.00000000 15.00000000 0.00000000 0.00000000 0.00000000 15.00000000" energy_frozen_part=0.00000000 Properties=species:S:1:pos:R:3:velocities:R:3:Z:I:1
H         6.08647737       3.96620855       6.21662996         0.00000000       0.00000000       0.00000000          1
H         7.71314517       4.94625235       8.26547906         0.00000000       0.00000000       0.00000000          1
H         4.71177229       2.38502632       8.06442910         0.00000000       0.00000000       0.00000000          1
H         6.33843840       3.36506833      10.11327053         0.00000000       0.00000000       0.00000000          1
H         4.93409860       5.13934904       8.47495728         0.00000000       0.00000000       0.00000000          1
H         7.49081945       2.19193094       7.85493704         0.00000000       0.00000000       0.00000000          1
6
pbc=[F, F, F] list_num_par=6 frozen=false iter=20000 energy=-1.26974174 Lattice="15.00000000 0.00000000 0.00000000 0.00000000 15.00000000 0.00000000 0.00000000 0.00000000 15.00000000" energy_frozen_part=0.00000000 Properties=species:S:1:pos:R:3:velocities:R:3:Z:I:1
H         6.08656192       3.96597791       6.21673113         0.00000000       0.00000000       0.00000000          1
H         7.71311837       4.94621430       8.26556305         0.00000000       0.00000000       0.00000000          1