6
pbc=[F, F, F] list_num_par=6 frozen=false iter=20000 energy=-1.26974174 Lattice="15.00000000 0.00000000 0.00000000 0.00000000 15.00000000 0.00000000 0.00000000 0.00000000 15.00000000" energy_frozen_part=0.00000000 Properties=species:S:1:pos:R:3:velocities:R:3:Z:I:1
H         8.84552496       6.20180615       7.44382925         0.00000000       0.00000000       0.00000000          1
H        10.80976581       7.08591913       5.66495960         0.00000000       0.00000000       0.00000000          1
H         8.13064000       7.03514921       4.87502884         0.00000000       0.00000000       0.00000000          1
H        10.12713379       8.64549429       7.87991094         0.00000000       0.00000000       0.00000000          1
H         7.44800907       8.59471923       7.08998151         0.00000000       0.00000000       0.00000000          1
H         9.41224785       9.47883598       5.31110609         0.00000000       0.00000000       0.00000000          1
6
pbc=[F, F, F] list_num_par=6 frozen=false iter=20000 energy=-1.26974174 Lattice="15.00000000 0.00000000 0.00000000 0.00000000 15.00000000 0.00000000 0.00000000 0.00000000 15.00000000" energy_frozen_part=0.00000000 Properties=species:S:1:pos:R:3:velocities:R:3:Z:I:1
H         8.84516079       6.20184896       7.44300054         0.00000000       0.00000000       0.00000000          1
H        10.81018869       7.08646278       5.66523977         0.00000000       0.00000000       0.00000000          1
H         8.13149759       7.03527843       4.87388384         0.00000000       0.00000000       0.00000000          1
H        10.12610888       8.64572007       7.87996751         0.00000000       0.00000000       0.00000000          1
H         7.44740876       8.59454132       7.08860594         0.00000000       0.00000000       0.00000000          1
H         9.41244059       9.47915753       5.31085448         0.00000000       0.00000000       0.00000000          1
6
pbc=[F, F, F] list_num_par=6 frozen=false iter=20000 energy=-1.26974174 Lattice="15.00000000 0.00000000 0.00000000 0.00000000 15.00000000 0.00000000 0.00000000 0.00000000 15.00000000" energy_frozen_part=0.00000000 Properties=species:S:1:pos:R:3:velocities:R:3:Z:I:1
H         8.84266944       6.20362436       7.44511403         0.00000000       0.00000000       0.00000000          1
H        10.80756593       7.08681775       5.66651447         0.00000000       0.00000000       0.00000000          1
H         8.12876162       7.03542757       4.87553522         0.00000000       0.00000000       0.00000000          1
H        10.12395062       8.64764419       7.88028471         0.00000000       0.00000000       0.00000000          1
H         7.44514919       8.59625032       7.08930877         0.00000000       0.00000000       0.00000000          1
H         9.41005184       9.47943676       5.31070363         0.00000000       0.00000000       0.00000000          1
6
pbc=[F, F, F] list_num_par=6 frozen=false iter=20000 energy=-1.26974174 Lattice="15.00000000 0.00000000 0.00000000 0.00000000 15.00000000 0.00000000 0.00000000 0.00000000 15.00000000" energy_frozen_part=0.00000000 Properties=species:S:1:pos:R:3:velocities:R:3:Z:I:1
H         8.84900362       6.19688437       7.44309373         0.00000000       0.00000000       0.00000000          1
H        10.81374944       7.08328164       5.66591788         0.00000000       0.00000000       0.00000000          1
H         8.13450392       7.03631328       4.87616537         0.00000000       0.00000000       0.00000000          1
H        10.13257445       8.63862489       7.88430264         0.00000000       0.00000000       0.00000000          1
H         7.45333100       8.59165042       7.09454677         0.00000000       0.00000000       0.00000000          1
H         9.41807585       9.47804659       5.31736814         0.00000000       0.00000000       0.00000000          1
6
pbc=[F, F, F] list_num_par=6 frozen=false iter=20000 energy=-1.26974174 Lattice="15.00000000 0.00000000 0.00000000 0.00000000 15.00000000 0.00000000 0.00000000 0.00000000 15.00000000" energy_frozen_part=0.00000000 Properties=species:S:1:pos:R:3:velocities:R:3:Z:I:1
H         8.84550475       6.20186522       7.44382123         0.00000000       0.00000000       0.00000000          1
H        10.80975564       7.08590098       5.66492248         0.00000000       0.00000000       0.00000000          1
H         8.13063466       7.03512430       4.87498231         0.00000000       0.00000000       0.00000000          1
H        10.12712643       8.64555454       7.87982523         0.00000000       0.00000000       0.00000000          1
H         7.44800996       8.59478057       7.08988622         0.00000000       0.00000000       0.00000000          1
H         9.41226270       9.47881145       5.31098250         0.00000000       0.00000000       0.00000000          1
6
pbc=[F, F, F] list_num_par=6 frozen=false iter=20000 energy=-1.26974174 Lattice="15.00000000 0.00000000 0.00000000 0.00000000 15.00000000 0.00000000 0.00000000 0.00000000 15.00000000" energy_frozen_part=0.00000000 Properties=species:S:1:pos:R:3:velocities:R:3:Z:I:1
H         8.84900681       6.19688470       7.44309483         0.00000000       0.00000000       0.00000000          1
H        10.81375726       7.08329302       5.66592381         0.00000000       0.00000000       0.00000000          1
H         8.13451038       7.03630487       4.87616283         0.00000000       0.00000000       0.00000000          1
H        10.13257349       8.63863010       7.88429697         0.00000000       0.00000000       0.00000000          1
H         7.45332480       8.59164154       7.09454484         0.00000000       0.00000000       0.00000000          1
H         9.41806559       9.47804683       5.31736331         0.00000000       0.00000000       0.00000000          1
6
pbc=[F, F, F] list_num_par=6 frozen=false iter=20000 energy=-1.26974174 Lattice="15.00000000 0.00000000 0.00000000 0.00000000 15.00000000 0.00000000 0.00000000 0.00000000 15.00000000" energy_frozen_part=0.00000000 Properties=species:S:1:pos:R:3:velocities:R:3:Z:I:1
H         8.84552733       6.20181738       7.44382843         0.00000000       0.00000000       0.00000000          1
H        10.80976408       7.08592576       5.66495241         0.00000000       0.00000000       0.00000000          1
H         8.13063940       7.03515432       4.87502641         0.00000000       0.00000000       0.00000000          1
H        10.12713328       8.64549861       7.87991339         0.00000000       0.00000000       0.00000000          1
H         7.44800703       8.59473066       7.08998317         0.00000000       0.00000000       0.00000000          1
H         9.41224734       9.47883817       5.31110280         0.00000000       0.00000000       0.00000000          1
6
pbc=[F, F, F] list_num_par=6 frozen=false iter=20000 energy=-1.26974174 Lattice="15.00000000 0.00000000 0.00000000 0.00000000 15.00000000 0.00000000 0.00000000 0.00000000 15.00000000" energy_frozen_part=0.00000000 Properties=species:S:1:pos:R:3:velocities:R:3:Z:I:1
H         8.84551678       6.20188957       7.44385502         0.00000000       0.00000000       0.00000000          1
H        10.80977856       7.08590818       5.66496475         0.00000000       0.00000000       0.00000000          1
H         8.13065903       7.03513618       4.87500741         0.00000000       0.00000000       0.00000000          1
H        10.12715517       8.64557101       7.87985620         0.00000000       0.00000000       0.00000000          1
H         7.44803310       8.59480421       7.08990440         0.00000000       0.00000000       0.00000000          1
H         9.41229460       9.47881889       5.31101445         0.00000000       0.00000000       0.00000000          1
6
pbc=[F, F, F] list_num_par=6 frozen=false iter=20000 energy=-1.26974174 Lattice="15.00000000 0.00000000 0.00000000 0.00000000 15.00000000 0.00000000 0.00000000 0.00000000 15.00000000" energy_frozen_part=0.00000000 Properties=species:S:1:pos:R:3:velocities:R:3:Z:I:1
H         8.84515193       6.20186090       7.44300648         0.00000000       0.00000000       0.00000000          1
H        10.81018056       7.08648539       5.66525245         0.00000000       0.00000000       0.00000000          1
H         8.13148038       7.03531858       4.87390456         0.00000000       0.00000000       0.00000000          1
H        10.12610837       8.64572397       7.88000150         0.00000000       0.00000000       0.00000000          1
H         7.44740995       8.59456294       7.08864631         0.00000000       0.00000000       0.00000000          1
H         9.41244226       9.47918395       5.31089631         0.00000000       0.00000000       0.00000000          1
6
pbc=[F, F, F] list_num_par=6 frozen=false iter=20000 energy=-1.26974174 Lattice="15.00000000 0.00000000 0.00000000 0.00000000 15.00000000 0.00000000 0.00000000 0.00000000 15.00000000" energy_frozen_part=0.00000000 Properties=species:S:1:pos:R:3:velocities:R:3:Z:I:1
H         8.84516211       6.20184362       7.44299562         0.00000000       0.00000000       0.00000000          1
H        10.81019109       7.08646226       5.66524211         0.00000000       0.00000000       0.00000000          1
H         8.13149169       7.03528784       4.87388233         0.00000000       0.00000000       0.00000000          1
H        10.12610809       8.64571735       7.87997171         0.00000000       0.00000000       0.00000000          1
H         7.44740925       8.59454223       7.08860760         0.00000000       0.00000000       0.00000000          1
H         9.41243784       9.47915930       5.31085915         0.00000000       0.00000000       0.00000000          1
6
pbc=[F, F, F] list_num_par=6 frozen=false iter=20000 energy=-1.26974174 Lattice="15.00000000 0.00000000 0.00000000 0.00000000 15.00000000 0.00000000 0.00000000 0.00000000 15.00000000" energy_frozen_part=0.00000000 Properties=species:S:1:pos:R:3:velocities:R:3:Z:I:1
H         8.84551489       6.20188627       7.44386665         0.00000000       0.00000000       0.00000000          1
H        10.80978132       7.08590679       5.66497649         0.00000000       0.00000000       0.00000000          1
H         8.13067022       7.03512101       4.87501267         0.00000000       0.00000000       0.00000000          1
H        10.12714071       8.64557914       7.87985618         0.00000000       0.00000000       0.00000000          1
H         7.44802580       8.59479607       7.08990157         0.00000000       0.00000000       0.00000000          1
H         9.41229016       9.47881323       5.31100795         0.00000000       0.00000000       0.00000000          1
6
pbc=[F, F, F] list_num_par=6 frozen=false iter=20000 energy=-1.26974174 Lattice="15.00000000 0.00000000 0.00000000 0.00000000 15.00000000 0.00000000 0.00000000 0.00000000 15.00000000" energy_frozen_part=0.00000000 Properties=species:S:1:pos:R:3:velocities:R:3:Z:I:1
H         8.84519975       6.20186177       7.44300931         0.00000000       0.00000000       0.00000000          1
H        10.81020394       7.08648775       5.66523464         0.00000000       0.00000000       0.00000000          1
H         8.13150158       7.03529199       4.87389907         0.00000000       0.00000000       0.00000000          1
H        10.12612545       8.64574921       7.87997190         0.00000000       0.00000000       0.00000000          1
H         7.44742631       8.59454910       7.08863407         0.00000000       0.00000000       0.00000000          1
H         9.41243632       9.47917538       5.31086507         0.00000000       0.00000000       0.00000000          1
6
pbc=[F, F, F] list_num_par=6 frozen=false iter=20000 energy=-1.26974174 Lattice="15.00000000 0.00000000 0.00000000 0.00000000 15.00000000 0.00000000 0.00000000 0.00000000 15.00000000" energy_frozen_part=0.00000000 Properties=species:S:1:pos:R:3:velocities:R:3:Z:I:1
H         8.84517452       6.20185806       7.44299413         0.00000000       0.00000000       0.00000000          1
H        10.81019855       7.08648784       5.66524648         0.00000000       0.00000000       0.00000000          1
H         8.13149986       7.03531138       4.87388532         0.00000000       0.00000000       0.00000000          1
H        10.12611366       8.64573445       7.87998621         0.00000000       0.00000000       0.00000000          1
H         7.44741552       8.59455332       7.08862284         0.00000000       0.00000000       0.00000000          1
H         9.41243636       9.47918157       5.31087419         0.00000000       0.00000000       0.00000000          1
6
pbc=[F, F, F] list_num_par=6 frozen=false iter=20000 energy=-1.26974174 Lattice="15.00000000 0.00000000 0.00000000 0.00000000 15.00000000 0.00000000 0.00000000 0.00000000 15.00000000" energy_frozen_part=0.00000000 Properties=species:S:1:pos:R:3:velocities:R:3:Z:I:1
H         8.84265701       6.20344558       7.44482911         0.00000000       0.00000000       0.00000000          1
H        10.80786553       7.08691848       5.66669890         0.00000000       0.00000000       0.00000000          1
H         8.12921451       7.03552008       4.87520510         0.00000000       0.00000000       0.00000000          1
H        10.12377516       8.64745681       7.88052335         0.00000000       0.00000000       0.00000000          1
H         7.44512242       8.59605643       7.08903285         0.00000000       0.00000000       0.00000000          1
H         9.41033337       9.47953041       5.31090998         0.00000000       0.00000000       0.00000000          1
6
pbc=[F, F, F] list_num_par=6 frozen=false iter=20000 energy=-1.26974174 Lattice="15.00000000 0.00000000 0.00000000 0.00000000 15.00000000 0.00000000 0.00000000 0.00000000 15.00000000" energy_frozen_part=0.00000000 Properties=species:S:1:pos:R:3:velocities:R:3:Z:I:1
H         8.84903480       6.19688524       7.44311739         0.00000000       0.00000000       0.00000000          1
H        10.81376377       7.08327711       5.66592038         0.00000000       0.00000000       0.00000000          1
H         8.13450858       7.03629381       4.87618692         0.00000000       0.00000000       0.00000000          1
H        10.13259750       8.63862041       7.88430056         0.00000000       0.00000000       0.00000000          1
H         7.45334445       8.59163461       7.09456488         0.00000000       0.00000000       0.00000000          1
H         9.41807352       9.47802998       5.31737319         0.00000000       0.00000000       0.00000000          1
6
pbc=[F, F, F] list_num_par=6 frozen=false iter=20000 energy=-1.26974174 Lattice="15.00000000 0.00000000 0.00000000 0.00000000 15.00000000 0.00000000 0.00000000 0.00000000 15.00000000" energy_frozen_part=0.00000000 Properties=species:S:1:pos:R:3:velocities:R:3:Z:I:1
H         8.84517488       6.20184217       7.44298777         0.00000000       0.00000000       0.00000000          1
H        10.81019590       7.08647202       5.66523031         0.00000000       0.00000000       0.00000000          1
H         8.13149643       7.03530013       4.87388345         0.00000000       0.00000000       0.00000000          1
H        10.12612234       8.64571258       7.87997493         0.00000000       0.00000000       0.00000000          1
H         7.44742452       8.59453806       7.08862159         0.00000000       0.00000000       0.00000000          1
H         9.41244504       9.47917040       5.31086453         0.00000000       0.00000000       0.00000000          1
6
pbc=[F, F, F] list_num_par=6 frozen=false iter=20000 energy=-1.26974174 Lattice="15.00000000 0.00000000 0.00000000 0.00000000 15.00000000 0.00000000 0.00000000 0.00000000 15.00000000" energy_frozen_part=0.00000000 Properties=species:S:1:pos:R:3:velocities:R:3:Z:I:1
H         8.84518708       6.20185590       7.44301039         0.00000000       0.00000000       0.00000000          1
H        10.81019119       7.08648074       5.66524397         0.00000000       0.00000000       0.00000000          1
H         8.13149099       7.03529999       4.87390288         0.00000000       0.00000000       0.00000000          1
H        10.12612644       8.64573931       7.87997902         0.00000000       0.00000000       0.00000000          1
H         7.44742728       8.59455133       7.08864178         0.00000000       0.00000000       0.00000000          1
H         9.41243549       9.47917390       5.31086765         0.00000000       0.00000000       0.00000000          1
6
pbc=[F, F, F] list_num_par=6 frozen=false iter=20000 energy=-1.26974174 Lattice="15.00000000 0.00000000 0.00000000 0.00000000 15.00000000 0.00000000 0.00000000 0.00000000 15.00000000" energy_frozen_part=0.00000000 Properties=species:S:1:pos:R:3:velocities:R:3:Z:I:1
H         8.84547935       6.20186484       7.44382160         0.00000000       0.00000000       0.00000000          1
H        10.80975020       7.08588449       5.66493733         0.00000000       0.00000000       0.00000000          1
H         8.13063142       7.03512475       4.87498280         0.00000000       0.00000000       0.00000000          1
H        10.12712280       8.64554912       7.87983094         0.00000000       0.00000000       0.00000000          1
H         7.44800359       8.59479112       7.08988018         0.00000000       0.00000000       0.00000000          1
H         9.41227274       9.47880784       5.31098652         0.00000000       0.00000000       0.00000000          1
6
pbc=[F, F, F] list_num_par=6 frozen=false iter=20000 energy=-1.26974174 Lattice="15.00000000 0.00000000 0.00000000 0.00000000 15.00000000 0.00000000 0.00000000 0.00000000 15.00000000" energy_frozen_part=0.00000000 Properties=species:S:1:pos:R:3:velocities:R:3:Z:I:1
H         8.84266029       6.20344673       7.44482429         0.00000000       0.00000000       0.00000000          1
H        10.80786823       7.08692364       5.66669982         0.00000000       0.00000000       0.00000000          1
H         8.12921412       7.03552666       4.87520793         0.00000000       0.00000000       0.00000000          1
H        10.12377218       8.64745665       7.88052426         0.00000000       0.00000000       0.00000000          1
H         7.44512048       8.59606411       7.08903031         0.00000000       0.00000000       0.00000000          1
H         9.41033206       9.47953315       5.31090924         0.00000000       0.00000000       0.00000000          1
6
pbc=[F, F, F] list_num_par=6 frozen=false iter=20000 energy=-1.26974174 Lattice="15.00000000 0.00000000 0.00000000 0.00000000 15.00000000 0.00000000 0.00000000 0.00000000 15.00000000" energy_frozen_part=0.00000000 Properties=species:S:1:pos:R:3:velocities:R:3:Z:I:1
H         8.84497789       6.20204167       7.44315596         0.00000000       0.00000000       0.00000000          1
H        10.81002541       7.08610244       5.66514811         0.00000000       0.00000000       0.00000000          1
H         8.13126721       7.03527317       4.87398641         0.00000000       0.00000000       0.00000000          1
H        10.12637307       8.64575405       7.87973262         0.00000000       0.00000000       0.00000000          1
H         7.44761454       8.59492642       7.08857124         0.00000000       0.00000000       0.00000000          1
H         9.41265845       9.47898987       5.31056279         0.00000000       0.00000000       0.00000000          1
6
pbc=[F, F, F] list_num_par=6 frozen=false iter=20000 energy=-1.26974174 Lattice="15.00000000 0.00000000 0.00000000 0.00000000 15.00000000 0.00000000 0.00000000 0.00000000 15.00000000" energy_frozen_part=0.00000000 Properties=species:S:1:pos:R:3:velocities:R:3:Z:I:1
H         8.84516802       6.20186616       7.44298406         0.00000000       0.00000000       0.00000000          1
H        10.81019441       7.08650239       5.66524244         0.00000000       0.00000000       0.00000000          1
H         8.13149646       7.03533215       4.87387973         0.00000000       0.00000000       0.00000000          1
H        10.12611391       8.64573603       7.87999342         0.00000000       0.00000000       0.00000000          1
H         7.44741571       8.59457080       7.08863080         0.00000000       0.00000000       0.00000000          1
H         9.41244269       9.47919732       5.31088788         0.00000000       0.00000000       0.00000000          1
6
pbc=[F, F, F] list_num_par=6 frozen=false iter=20000 energy=-1.26974174 Lattice="15.00000000 0.00000000 0.00000000 0.00000000 15.00000000 0.00000000 0.00000000 0.00000000 15.00000000" energy_frozen_part=0.00000000 Properties=species:S:1:pos:R:3:velocities:R:3:Z:I:1
H         8.84513046       6.20187956       7.44295049         0.00000000       0.00000000       0.00000000          1
H        10.81017623       7.08648145       5.66521672         0.00000000       0.00000000       0.00000000          1
H         8.13148252       7.03533837       4.87383726         0.00000000       0.00000000       0.00000000          1
H        10.12610583       8.64573480       7.87995386         0.00000000       0.00000000       0.00000000          1
H         7.44741288       8.59458730       7.08857831         0.00000000       0.00000000       0.00000000          1
H         9.41245388       9.47919226       5.31083678         0.00000000       0.00000000       0.00000000          1
6
pbc=[F, F, F] list_num_par=6 frozen=false iter=20000 energy=-1.26974174 Lattice="15.00000000 0.00000000 0.00000000 0.00000000 15.00000000 0.00000000 0.00000000 0.00000000 15.00000000" energy_frozen_part=0.00000000 Properties=species:S:1:pos:R:3:velocities:R:3:Z:I:1
H         8.84267425       6.20365198       7.44518504         0.00000000       0.00000000       0.00000000          1
H        10.80740323       7.08694390       5.66644405         0.00000000       0.00000000       0.00000000          1
H         8.12853862       7.03547944       4.87567667         0.00000000       0.00000000       0.00000000          1
H        10.12392446       8.64769587       7.88031070         0.00000000       0.00000000       0.00000000          1
H         7.44506065       8.59623445       7.08954453         0.00000000       0.00000000       0.00000000          1
H         9.40978560       9.47952663       5.31080174         0.00000000       0.00000000       0.00000000          1
6
pbc=[F, F, F] list_num_par=6 frozen=false iter=20000 energy=-1.26974174 Lattice="15.00000000 0.00000000 0.00000000 0.00000000 15.00000000 0.00000000 0.00000000 0.00000000 15.00000000" energy_frozen_part=0.00000000 Properties=species:S:1:pos:R:3:velocities:R:3:Z:I:1
H         8.84497749       6.20202639       7.44317556         0.00000000       0.00000000       0.00000000          1
H        10.81003017       7.08607130       5.66515860         0.00000000       0.00000000       0.00000000          1
H         8.13126402       7.03527333       4.87401309         0.00000000       0.00000000       0.00000000          1
H        10.12639599       8.64572722       7.87974951         0.00000000       0.00000000       0.00000000          1
H         7.44762643       8.59493019       7.08859560         0.00000000       0.00000000       0.00000000          1
H         9.41267810       9.47897041       5.31058753         0.00000000       0.00000000       0.00000000          1
6
pbc=[F, F, F] list_num_par=6 frozen=false iter=20000 energy=-1.26974174 Lattice="15.00000000 0.00000000 0.00000000 0.00000000 15.00000000 0.00000000 0.00000000 0.00000000 15.00000000" energy_frozen_part=0.00000000 Properties=species:S:1:pos:R:3:velocities:R:3:Z:I:1
H         8.84493559       6.20204211       7.44315713         0.00000000       0.00000000       0.00000000          1
H        10.81003407       7.08609001       5.66520635         0.00000000       0.00000000       0.00000000          1
H         8.13128981       7.03530144       4.87398504         0.00000000       0.00000000       0.00000000          1
H        10.12634133       8.64572940       7.87978905         0.00000000       0.00000000       0.00000000          1
H         7.44759916       8.59494554       7.08856188         0.00000000       0.00000000       0.00000000          1
H         9.41269660       9.47899489       5.31061253         0.00000000       0.00000000       0.00000000          1
6
pbc=[F, F, F] list_num_par=6 frozen=false iter=20000 energy=-1.26974174 Lattice="15.00000000 0.00000000 0.00000000 0.00000000 15.00000000 0.00000000 0.00000000 0.00000000 15.00000000" energy_frozen_part=0.00000000 Properties=species:S:1:pos:R:3:velocities:R:3:Z:I:1
H         8.84553753       6.20182044       7.44384358         0.00000000       0.00000000       0.00000000          1
H        10.80977186       7.08593077       5.66495897         0.00000000       0.00000000       0.00000000          1
H         8.13065156       7.03512902       4.87502538         0.00000000       0.00000000       0.00000000          1
H        10.12713083       8.64551767       7.87990726         0.00000000       0.00000000       0.00000000          1
H         7.44800836       8.59471258       7.08997212         0.00000000       0.00000000       0.00000000          1
H         9.41223687       9.47882975       5.31109225         0.00000000       0.00000000       0.00000000          1
6
pbc=[F, F, F] list_num_par=6 frozen=false iter=20000 energy=-1.26974174 Lattice="15.00000000 0.00000000 0.00000000 0.00000000 15.00000000 0.00000000 0.00000000 0.00000000 15.00000000" energy_frozen_part=0.00000000 Properties=species:S:1:pos:R:3:velocities:R:3:Z:I:1
H         8.84498936       6.20203574       7.44317217         0.00000000       0.00000000       0.00000000          1
H        10.81003988       7.08608506       5.66515868         0.00000000       0.00000000       0.00000000          1
H         8.13127155       7.03527017       4.87400450         0.00000000       0.00000000       0.00000000          1
H        10.12639136       8.64573787       7.87974447         0.00000000       0.00000000       0.00000000          1
H         7.44762350       8.59492779       7.08859524         0.00000000       0.00000000       0.00000000          1
H         9.41267158       9.47897848       5.31058485         0.00000000       0.00000000       0.00000000          1
6
pbc=[F, F, F] list_num_par=6 frozen=false iter=20000 energy=-1.26974174 Lattice="15.00000000 0.00000000 0.00000000 0.00000000 15.00000000 0.00000000 0.00000000 0.00000000 15.00000000" energy_frozen_part=0.00000000 Properties=species:S:1:pos:R:3:velocities:R:3:Z:I:1
H         8.84518808       6.20187092       7.44299481         0.00000000       0.00000000       0.00000000          1
H        10.81019009       7.08652421       5.66523280         0.00000000       0.00000000       0.00000000          1
H         8.13148881       7.03531653       4.87389309         0.00000000       0.00000000       0.00000000          1
H        10.12610988       8.64576181       7.87997403         0.00000000       0.00000000       0.00000000          1
H         7.44741305       8.59455591       7.08863744         0.00000000       0.00000000       0.00000000          1
H         9.41240763       9.47920299       5.31087202         0.00000000       0.00000000       0.00000000          1
6
pbc=[F, F, F] list_num_par=6 frozen=false iter=20000 energy=-1.26974174 Lattice="15.00000000 0.00000000 0.00000000 0.00000000 15.00000000 0.00000000 0.00000000 0.00000000 15.00000000" energy_frozen_part=0.00000000 Properties=species:S:1:pos:R:3:velocities:R:3:Z:I:1
H         8.84519785       6.20188138       7.44300775         0.00000000       0.00000000       0.00000000          1
H        10.81020177       7.08649244       5.66522703         0.00000000       0.00000000       0.00000000          1
H         8.13150049       7.03528483       4.87389116         0.00000000       0.00000000       0.00000000          1
H        10.12613267       8.64575920       7.87995118         0.00000000       0.00000000       0.00000000          1
H         7.44742475       8.59455740       7.08861824         0.00000000       0.00000000       0.00000000          1
H         9.41242857       9.47917430       5.31083908         0.00000000       0.00000000       0.00000000          1
6
pbc=[F, F, F] list_num_par=6 frozen=false iter=20000 energy=-1.26974174 Lattice="15.00000000 0.00000000 0.00000000 0.00000000 15.00000000 0.00000000 0.00000000 0.00000000 15.00000000" energy_frozen_part=0.00000000 Properties=species:S:1:pos:R:3:velocities:R:3:Z:I:1
H         8.84494006       6.20202949       7.44315073         0.00000000       0.00000000       0.00000000          1
H        10.81002550       7.08608248       5.66518893         0.00000000       0.00000000       0.00000000          1
H         8.13127727       7.03529519       4.87398414         0.00000000       0.00000000       0.00000000          1
H        10.12635272       8.64572419       7.87976953         0.00000000       0.00000000       0.00000000          1
H         7.44760278       8.59493790       7.08857046         0.00000000       0.00000000       0.00000000          1
H         9.41268645       9.47899269       5.31060225         0.00000000       0.00000000       0.00000000          1
6
pbc=[F, F, F] list_num_par=6 frozen=false iter=20000 energy=-1.26974174 Lattice="15.00000000 0.00000000 0.00000000 0.00000000 15.00000000 0.00000000 0.00000000 0.00000000 15.00000000" energy_frozen_part=0.00000000 Properties=species:S:1:pos:R:3:velocities:R:3:Z:I:1
H         8.84515676       6.20185025       7.44297875         0.00000000       0.00000000       0.00000000          1
H        10.81018888       7.08647638       5.66523468         0.00000000       0.00000000       0.00000000          1