6
pbc=[F, F, F] list_num_par=6 frozen=false iter=20000 energy=-1.26974174 Lattice="15.00000000 0.00000000 0.00000000 0.00000000 15.00000000 0.00000000 0.00000000 0.00000000 15.00000000" energy_frozen_part=0.00000000 Properties=species:S:1:pos:R:3:velocities:R:3:Z:I:1
H         2.17006950       6.55652073       9.74934444         0.00000000       0.00000000       0.00000000          1
H         4.01372944       7.23912984       7.76458213         0.00000000       0.00000000       0.00000000          1
H         1.91640807       7.73715519       5.98765019         0.00000000       0.00000000       0.00000000          1
H         2.10006069       5.26398496       7.27372062         0.00000000       0.00000000       0.00000000          1
H         0.07275001       7.05454946       7.97240812         0.00000000       0.00000000       0.00000000          1
H         1.98642765       9.02969427       8.46327501         0.00000000       0.00000000       0.00000000          1
6
pbc=[F, F, F] list_num_par=6 frozen=false iter=20000 energy=-1.26974174 Lattice="15.00000000 0.00000000 0.00000000 0.00000000 15.00000000 0.00000000 0.00000000 0.00000000 15.00000000" energy_frozen_part=0.00000000 Properties=species:S:1:pos:R:3:velocities:R:3:Z:I:1
H         2.17013453       6.55671226       9.74926780         0.00000000       0.00000000       0.00000000          1
H         4.01387413       7.23932621       7.76458486         0.00000000       0.00000000       0.00000000          1
H         1.91664273       7.73700075       5.98745209         0.00000000       0.00000000       0.00000000          1
H         2.10043181       5.26395350       7.27374100         0.00000000       0.00000000       0.00000000          1
H         0.07290040       7.05438970       7.97213576         0.00000000       0.00000000       0.00000000          1
H         1.98633969       9.02975865       8.46297462         0.00000000       0.00000000       0.00000000          1
6
pbc=[F, F, F] list_num_par=6 frozen=false iter=20000 energy=-1.26974174 Lattice="15.00000000 0.00000000 0.00000000 0.00000000 15.00000000 0.00000000 0.00000000 0.00000000 15.00000000" energy_frozen_part=0.00000000 Properties=species:S:1:pos:R:3:velocities:R:3:Z:I:1
H         2.17007143       6.55652401       9.74933369         0.00000000       0.00000000       0.00000000          1
H         4.01373396       7.23914675       7.76457588         0.00000000       0.00000000       0.00000000          1
H         1.91641376       7.73714277       5.98763253         0.00000000       0.00000000       0.00000000          1
H         2.10008743       5.26397675       7.27371375         0.00000000       0.00000000       0.00000000          1
H         0.07275572       7.05452819       7.97238514         0.00000000       0.00000000       0.00000000          1
H         1.98640719       9.02969009       8.46326161         0.00000000       0.00000000       0.00000000          1
6
pbc=[F, F, F] list_num_par=6 frozen=false iter=20000 energy=-1.26974174 Lattice="15.00000000 0.00000000 0.00000000 0.00000000 15.00000000 0.00000000 0.00000000 0.00000000 15.00000000" energy_frozen_part=0.00000000 Properties=species:S:1:pos:R:3:velocities:R:3:Z:I:1
H         2.17013891       6.55663232       9.74924694         0.00000000       0.00000000       0.00000000          1
H         4.01386951       7.23928169       7.76457874         0.00000000       0.00000000       0.00000000          1
H         1.91664124       7.73700786       5.98746521         0.00000000       0.00000000       0.00000000          1
H         2.10041831       5.26392870       7.27370061         0.00000000       0.00000000       0.00000000          1
H         0.07289890       7.05436252       7.97213229         0.00000000       0.00000000       0.00000000          1
H         1.98635218       9.02971099       8.46301679         0.00000000       0.00000000       0.00000000          1
6
pbc=[F, F, F] list_num_par=6 frozen=false iter=20000 energy=-1.26974174 Lattice="15.00000000 0.00000000 0.00000000 0.00000000 15.00000000 0.00000000 0.00000000 0.00000000 15.00000000" energy_frozen_part=0.00000000 Properties=species:S:1:pos:R:3:velocities:R:3:Z:I:1
H         2.17013412       6.55661140       9.74925256         0.00000000       0.00000000       0.00000000          1
H         4.01388021       7.23927065       7.76459692         0.00000000       0.00000000       0.00000000          1
H         1.91664944       7.73698515       5.98746632         0.00000000       0.00000000       0.00000000          1
H         2.10043344       5.26391287       7.27369889         0.00000000       0.00000000       0.00000000          1
H         0.07289882       7.05432338       7.97212987         0.00000000       0.00000000       0.00000000          1
H         1.98634053       9.02968646       8.46302019         0.00000000       0.00000000       0.00000000          1
6
pbc=[F, F, F] list_num_par=6 frozen=false iter=20000 energy=-1.26974174 Lattice="15.00000000 0.00000000 0.00000000 0.00000000 15.00000000 0.00000000 0.00000000 0.00000000 15.00000000" energy_frozen_part=0.00000000 Properties=species:S:1:pos:R:3:velocities:R:3:Z:I:1
H         2.14939032       6.50166950       9.72308986         0.00000000       0.00000000       0.00000000          1
H         4.04523956       7.26410797       7.81816692         0.00000000       0.00000000       0.00000000          1
H         2.00079352       7.74608423       5.97636773         0.00000000       0.00000000       0.00000000          1
H         2.19813586       5.25429859       7.22389441         0.00000000       0.00000000       0.00000000          1
H         0.10493964       6.98364314       7.88129648         0.00000000       0.00000000       0.00000000          1
H         1.95204565       8.99346059       8.47556226         0.00000000       0.00000000       0.00000000          1
6
pbc=[F, F, F] list_num_par=6 frozen=false iter=20000 energy=-1.26974174 Lattice="15.00000000 0.00000000 0.00000000 0.00000000 15.00000000 0.00000000 0.00000000 0.00000000 15.00000000" energy_frozen_part=0.00000000 Properties=species:S:1:pos:R:3:velocities:R:3:Z:I:1
H         2.17008515       6.55670884       9.74925316         0.00000000       0.00000000       0.00000000          1
H         4.01384490       7.23929321       7.76458796         0.00000000       0.00000000       0.00000000          1
H         1.91663161       7.73698842       5.98743451         0.00000000       0.00000000       0.00000000          1
H         2.10037930       5.26394853       7.27373695         0.00000000       0.00000000       0.00000000          1
H         0.07286937       7.05440907       7.97210057         0.00000000       0.00000000       0.00000000          1
H         1.98633210       9.02975608       8.46294530         0.00000000       0.00000000       0.00000000          1
6
pbc=[F, F, F] list_num_par=6 frozen=false iter=20000 energy=-1.26974174 Lattice="15.00000000 0.00000000 0.00000000 0.00000000 15.00000000 0.00000000 0.00000000 0.00000000 15.00000000" energy_frozen_part=0.00000000 Properties=species:S:1:pos:R:3:velocities:R:3:Z:I:1
H         2.17007473       6.55647168       9.74925869         0.00000000       0.00000000       0.00000000          1
H         4.01369767       7.23911865       7.76448132         0.00000000       0.00000000       0.00000000          1
H         1.91634275       7.73718129       5.98760265         0.00000000       0.00000000       0.00000000          1
H         2.10002372       5.26397826       7.27361033         0.00000000       0.00000000       0.00000000          1
H         0.07271948       7.05453044       7.97237452         0.00000000       0.00000000       0.00000000          1
H         1.98639430       9.02967513       8.46325269         0.00000000       0.00000000       0.00000000          1
6
pbc=[F, F, F] list_num_par=6 frozen=false iter=20000 energy=-1.26974174 Lattice="15.00000000 0.00000000 0.00000000 0.00000000 15.00000000 0.00000000 0.00000000 0.00000000 15.00000000" energy_frozen_part=0.00000000 Properties=species:S:1:pos:R:3:velocities:R:3:Z:I:1
H         2.15081388       6.50088552       9.72209041         0.00000000       0.00000000       0.00000000          1
H         4.04430718       7.26589399       7.81585866         0.00000000       0.00000000       0.00000000          1
H         1.99759534       7.75023909       5.97720489         0.00000000       0.00000000       0.00000000          1
H         2.19652784       5.25681765       7.22119728         0.00000000       0.00000000       0.00000000          1
H         0.10409462       6.98524172       7.88343681         0.00000000       0.00000000       0.00000000          1
H         1.95187519       8.99431515       8.47809435         0.00000000       0.00000000       0.00000000          1
6
pbc=[F, F, F] list_num_par=6 frozen=false iter=20000 energy=-1.26974174 Lattice="15.00000000 0.00000000 0.00000000 0.00000000 15.00000000 0.00000000 0.00000000 0.00000000 15.00000000" energy_frozen_part=0.00000000 Properties=species:S:1:pos:R:3:velocities:R:3:Z:I:1
H         2.17009745       6.55665633       9.74924160         0.00000000       0.00000000       0.00000000          1
H         4.01385887       7.23924790       7.76457975         0.00000000       0.00000000       0.00000000          1
H         1.91663991       7.73700408       5.98745052         0.00000000       0.00000000       0.00000000          1
H         2.10037062       5.26393186       7.27370210         0.00000000       0.00000000       0.00000000          1
H         0.07288263       7.05441168       7.97210885         0.00000000       0.00000000       0.00000000          1
H         1.98637410       9.02973197       8.46298283         0.00000000       0.00000000       0.00000000          1
6
pbc=[F, F, F] list_num_par=6 frozen=false iter=20000 energy=-1.26974174 Lattice="15.00000000 0.00000000 0.00000000 0.00000000 15.00000000 0.00000000 0.00000000 0.00000000 15.00000000" energy_frozen_part=0.00000000 Properties=species:S:1:pos:R:3:velocities:R:3:Z:I:1
H         2.17011219       6.55667958       9.74923720         0.00000000       0.00000000       0.00000000          1
H         4.01386396       7.23926259       7.76455832         0.00000000       0.00000000       0.00000000          1
H         1.91662928       7.73700667       5.98743912         0.00000000       0.00000000       0.00000000          1
H         2.10036100       5.26394498       7.27371047         0.00000000       0.00000000       0.00000000          1
H         0.07288191       7.05442642       7.97211650         0.00000000       0.00000000       0.00000000          1
H         1.98637740       9.02974001       8.46297729         0.00000000       0.00000000       0.00000000          1
6
pbc=[F, F, F] list_num_par=6 frozen=false iter=20000 energy=-1.26974174 Lattice="15.00000000 0.00000000 0.00000000 0.00000000 15.00000000 0.00000000 0.00000000 0.00000000 15.00000000" energy_frozen_part=0.00000000 Properties=species:S:1:pos:R:3:velocities:R:3:Z:I:1
H         2.14939551       6.50171624       9.72309488         0.00000000       0.00000000       0.00000000          1
H         4.04525091       7.26413672       7.81817799         0.00000000       0.00000000       0.00000000          1
H         2.00081182       7.74609942       5.97636619         0.00000000       0.00000000       0.00000000          1
H         2.19815703       5.25431640       7.22391381         0.00000000       0.00000000       0.00000000          1
H         0.10496000       6.98366939       7.88127843         0.00000000       0.00000000       0.00000000          1
H         1.95204982       8.99349147       8.47554347         0.00000000       0.00000000       0.00000000          1
6
pbc=[F, F, F] list_num_par=6 frozen=false iter=20000 energy=-1.26974174 Lattice="15.00000000 0.00000000 0.00000000 0.00000000 15.00000000 0.00000000 0.00000000 0.00000000 15.00000000" energy_frozen_part=0.00000000 Properties=species:S:1:pos:R:3:velocities:R:3:Z:I:1
H         2.17016630       6.55661600       9.74924775         0.00000000       0.00000000       0.00000000          1
H         4.01389994       7.23929142       7.76457675         0.00000000       0.00000000       0.00000000          1
H         1.91665867       7.73702205       5.98746758         0.00000000       0.00000000       0.00000000          1
H         2.10045600       5.26393015       7.27368493         0.00000000       0.00000000       0.00000000          1
H         0.07292807       7.05434644       7.97213468         0.00000000       0.00000000       0.00000000          1
H         1.98637649       9.02970197       8.46303094         0.00000000       0.00000000       0.00000000          1
6
pbc=[F, F, F] list_num_par=6 frozen=false iter=20000 energy=-1.26974174 Lattice="15.00000000 0.00000000 0.00000000 0.00000000 15.00000000 0.00000000 0.00000000 0.00000000 15.00000000" energy_frozen_part=0.00000000 Properties=species:S:1:pos:R:3:velocities:R:3:Z:I:1
H         2.17007835       6.55652139       9.74931764         0.00000000       0.00000000       0.00000000          1
H         4.01371220       7.23913991       7.76454981         0.00000000       0.00000000       0.00000000          1
H         1.91638037       7.73714865       5.98763196         0.00000000       0.00000000       0.00000000          1
H         2.10005029       5.26397668       7.27369596         0.00000000       0.00000000       0.00000000          1
H         0.07273736       7.05453758       7.97240611         0.00000000       0.00000000       0.00000000          1
H         1.98639657       9.02969753       8.46325046         0.00000000       0.00000000       0.00000000          1
6
pbc=[F, F, F] list_num_par=6 frozen=false iter=20000 energy=-1.26974174 Lattice="15.00000000 0.00000000 0.00000000 0.00000000 15.00000000 0.00000000 0.00000000 0.00000000 15.00000000" energy_frozen_part=0.00000000 Properties=species:S:1:pos:R:3:velocities:R:3:Z:I:1
H         2.14941968       6.50161129       9.72309454         0.00000000       0.00000000       0.00000000          1
H         4.04524986       7.26410393       7.81817639         0.00000000       0.00000000       0.00000000          1
H         2.00078776       7.74611058       5.97641031         0.00000000       0.00000000       0.00000000          1
H         2.19815502       5.25429317       7.22387997         0.00000000       0.00000000       0.00000000          1
H         0.10495158       6.98361859       7.88132871         0.00000000       0.00000000       0.00000000          1
H         1.95204775       8.99342724       8.47563541         0.00000000       0.00000000       0.00000000          1
6
pbc=[F, F, F] list_num_par=6 frozen=false iter=20000 energy=-1.26974174 Lattice="15.00000000 0.00000000 0.00000000 0.00000000 15.00000000 0.00000000 0.00000000 0.00000000 15.00000000" energy_frozen_part=0.00000000 Properties=species:S:1:pos:R:3:velocities:R:3:Z:I:1
H         2.15083227       6.50088572       9.72208305         0.00000000       0.00000000       0.00000000          1
H         4.04431451       7.26590283       7.81584588         0.00000000       0.00000000       0.00000000          1
H         1.99759737       7.75023699       5.97719841         0.00000000       0.00000000       0.00000000          1
H         2.19654676       5.25681356       7.22118802         0.00000000       0.00000000       0.00000000          1
H         0.10411123       6.98523413       7.88344042         0.00000000       0.00000000       0.00000000          1
H         1.95187721       8.99431559       8.47809074         0.00000000       0.00000000       0.00000000          1
6
pbc=[F, F, F] list_num_par=6 frozen=false iter=20000 energy=-1.26974174 Lattice="15.00000000 0.00000000 0.00000000 0.00000000 15.00000000 0.00000000 0.00000000 0.00000000 15.00000000" energy_frozen_part=0.00000000 Properties=species:S:1:pos:R:3:velocities:R:3:Z:I:1
H         2.17006918       6.55648217       9.74927433         0.00000000       0.00000000       0.00000000          1
H         4.01369650       7.23908572       7.76449285         0.00000000       0.00000000       0.00000000          1
H         1.91635634       7.73716596       5.98760053         0.00000000       0.00000000       0.00000000          1
H         2.10000285       5.26396998       7.27363442         0.00000000       0.00000000       0.00000000          1
H         0.07272485       7.05455311       7.97238112         0.00000000       0.00000000       0.00000000          1
H         1.98642071       9.02967013       8.46324605         0.00000000       0.00000000       0.00000000          1
6
pbc=[F, F, F] list_num_par=6 frozen=false iter=20000 energy=-1.26974174 Lattice="15.00000000 0.00000000 0.00000000 0.00000000 15.00000000 0.00000000 0.00000000 0.00000000 15.00000000" energy_frozen_part=0.00000000 Properties=species:S:1:pos:R:3:velocities:R:3:Z:I:1
H         2.17011176       6.55643638       9.74923351         0.00000000       0.00000000       0.00000000          1
H         4.01373265       7.23906343       7.76445473         0.00000000       0.00000000       0.00000000          1
H         1.91638444       7.73717582       5.98757708         0.00000000       0.00000000       0.00000000          1
H         2.10002634       5.26396311       7.27356968         0.00000000       0.00000000       0.00000000          1
H         0.07276510       7.05453946       7.97236186         0.00000000       0.00000000       0.00000000          1
H         1.98647281       9.02964693       8.46323793         0.00000000       0.00000000       0.00000000          1
6
pbc=[F, F, F] list_num_par=6 frozen=false iter=20000 energy=-1.26974174 Lattice="15.00000000 0.00000000 0.00000000 0.00000000 15.00000000 0.00000000 0.00000000 0.00000000 15.00000000" energy_frozen_part=0.00000000 Properties=species:S:1:pos:R:3:velocities:R:3:Z:I:1
H         2.17013257       6.55660657       9.74924792         0.00000000       0.00000000       0.00000000          1
H         4.01387761       7.23926988       7.76458673         0.00000000       0.00000000       0.00000000          1
H         1.91663485       7.73699430       5.98746183         0.00000000       0.00000000       0.00000000          1
H         2.10043606       5.26391297       7.27369354         0.00000000       0.00000000       0.00000000          1
H         0.07290185       7.05432443       7.97212015         0.00000000       0.00000000       0.00000000          1
H         1.98634360       9.02968507       8.46301819         0.00000000       0.00000000       0.00000000          1
6
pbc=[F, F, F] list_num_par=6 frozen=false iter=20000 energy=-1.26974174 Lattice="15.00000000 0.00000000 0.00000000 0.00000000 15.00000000 0.00000000 0.00000000 0.00000000 15.00000000" energy_frozen_part=0.00000000 Properties=species:S:1:pos:R:3:velocities:R:3:Z:I:1
H         2.17006672       6.55648837       9.74928063         0.00000000       0.00000000       0.00000000          1
H         4.01370817       7.23909444       7.76450931         0.00000000       0.00000000       0.00000000          1
H         1.91636806       7.73716659       5.98760140         0.00000000       0.00000000       0.00000000          1
H         2.10001672       5.26397673       7.27363725         0.00000000       0.00000000       0.00000000          1
H         0.07273141       7.05455485       7.97237440         0.00000000       0.00000000       0.00000000          1
H         1.98642448       9.02967340       8.46324864         0.00000000       0.00000000       0.00000000          1
6
pbc=[F, F, F] list_num_par=6 frozen=false iter=20000 energy=-1.26974174 Lattice="15.00000000 0.00000000 0.00000000 0.00000000 15.00000000 0.00000000 0.00000000 0.00000000 15.00000000" energy_frozen_part=0.00000000 Properties=species:S:1:pos:R:3:velocities:R:3:Z:I:1
H         2.17014319       6.55660220       9.74926636         0.00000000       0.00000000       0.00000000          1
H         4.01387949       7.23926734       7.76460505         0.00000000       0.00000000       0.00000000          1
H         1.91664550       7.73698135       5.98747711         0.00000000       0.00000000       0.00000000          1
H         2.10043943       5.26391084       7.27371079         0.00000000       0.00000000       0.00000000          1
H         0.07290960       7.05432297       7.97214132         0.00000000       0.00000000       0.00000000          1
H         1.98634688       9.02967936       8.46303438         0.00000000       0.00000000       0.00000000          1
6
pbc=[F, F, F] list_num_par=6 frozen=false iter=20000 energy=-1.26974174 Lattice="15.00000000 0.00000000 0.00000000 0.00000000 15.00000000 0.00000000 0.00000000 0.00000000 15.00000000" energy_frozen_part=0.00000000 Properties=species:S:1:pos:R:3:velocities:R:3:Z:I:1
H         2.17015457       6.55668094       9.74923946         0.00000000       0.00000000       0.00000000          1
H         4.01388664       7.23930925       7.76456486         0.00000000       0.00000000       0.00000000          1
H         1.91663806       7.73698916       5.98744369         0.00000000       0.00000000       0.00000000          1
H         2.10044743       5.26393585       7.27371125         0.00000000       0.00000000       0.00000000          1
H         0.07290890       7.05436557       7.97212451         0.00000000       0.00000000       0.00000000          1
H         1.98635282       9.02973542       8.46297116         0.00000000       0.00000000       0.00000000          1
6
pbc=[F, F, F] list_num_par=6 frozen=false iter=20000 energy=-1.26974174 Lattice="15.00000000 0.00000000 0.00000000 0.00000000 15.00000000 0.00000000 0.00000000 0.00000000 15.00000000" energy_frozen_part=0.00000000 Properties=species:S:1:pos:R:3:velocities:R:3:Z:I:1
H         2.17008977       6.55671257       9.74925125         0.00000000       0.00000000       0.00000000          1
H         4.01385443       7.23929197       7.76457545         0.00000000       0.00000000       0.00000000          1
H         1.91663480       7.73699529       5.98743209         0.00000000       0.00000000       0.00000000          1
H         2.10037587       5.26395170       7.27373398         0.00000000       0.00000000       0.00000000          1
H         0.07287441       7.05441897       7.97210665         0.00000000       0.00000000       0.00000000          1
H         1.98635346       9.02976173       8.46295209         0.00000000       0.00000000       0.00000000          1
6
pbc=[F, F, F] list_num_par=6 frozen=false iter=20000 energy=-1.26974174 Lattice="15.00000000 0.00000000 0.00000000 0.00000000 15.00000000 0.00000000 0.00000000 0.00000000 15.00000000" energy_frozen_part=0.00000000 Properties=species:S:1:pos:R:3:velocities:R:3:Z:I:1
H         2.17007610       6.55670351       9.74923813         0.00000000       0.00000000       0.00000000          1
H         4.01384754       7.23927181       7.76457253         0.00000000       0.00000000       0.00000000          1
H         1.91663855       7.73700192       5.98742182         0.00000000       0.00000000       0.00000000          1
H         2.10036534       5.26394385       7.27370915         0.00000000       0.00000000       0.00000000          1
H         0.07287125       7.05442881       7.97208285         0.00000000       0.00000000       0.00000000          1
H         1.98635733       9.02975558       8.46294987         0.00000000       0.00000000       0.00000000          1
6
pbc=[F, F, F] list_num_par=6 frozen=false iter=20000 energy=-1.26974174 Lattice="15.00000000 0.00000000 0.00000000 0.00000000 15.00000000 0.00000000 0.00000000 0.00000000 15.00000000" energy_frozen_part=0.00000000 Properties=species:S:1:pos:R:3:velocities:R:3:Z:I:1
H         2.17006146       6.55660190       9.74924615         0.00000000       0.00000000       0.00000000          1
H         4.01385130       7.23925410       7.76462166         0.00000000       0.00000000       0.00000000          1
H         1.91665022       7.73704354       5.98747978         0.00000000       0.00000000       0.00000000          1
H         2.10036379       5.26394587       7.27367134         0.00000000       0.00000000       0.00000000          1
H         0.07285807       7.05439512       7.97209861         0.00000000       0.00000000       0.00000000          1
H         1.98634312       9.02970406       8.46304769         0.00000000       0.00000000       0.00000000          1
6
pbc=[F, F, F] list_num_par=6 frozen=false iter=20000 energy=-1.26974174 Lattice="15.00000000 0.00000000 0.00000000 0.00000000 15.00000000 0.00000000 0.00000000 0.00000000 15.00000000" energy_frozen_part=0.00000000 Properties=species:S:1:pos:R:3:velocities:R:3:Z:I:1
H         2.17015369       6.55662843       9.74925259         0.00000000       0.00000000       0.00000000          1
H         4.01389327       7.23929444       7.76458543         0.00000000       0.00000000       0.00000000          1
H         1.91665573       7.73700018       5.98745507         0.00000000       0.00000000       0.00000000          1
H         2.10045871       5.26392922       7.27370006         0.00000000       0.00000000       0.00000000          1
H         0.07291829       7.05433806       7.97212632         0.00000000       0.00000000       0.00000000          1
H         1.98635650       9.02970494       8.46300637         0.00000000       0.00000000       0.00000000          1
6
pbc=[F, F, F] list_num_par=6 frozen=false iter=20000 energy=-1.26974174 Lattice="15.00000000 0.00000000 0.00000000 0.00000000 15.00000000 0.00000000 0.00000000 0.00000000 15.00000000" energy_frozen_part=0.00000000 Properties=species:S:1:pos:R:3:velocities:R:3:Z:I:1
H         2.17013014       6.55661989       9.74923159         0.00000000       0.00000000       0.00000000          1
H         4.01387436       7.23925534       7.76456498         0.00000000       0.00000000       0.00000000          1
H         1.91664305       7.73699211       5.98744252         0.00000000       0.00000000       0.00000000          1
H         2.10041955       5.26391395       7.27368785         0.00000000       0.00000000       0.00000000          1
H         0.07289699       7.05434891       7.97210972         0.00000000       0.00000000       0.00000000          1
H         1.98635835       9.02969587       8.46299100         0.00000000       0.00000000       0.00000000          1
6
pbc=[F, F, F] list_num_par=6 frozen=false iter=20000 energy=-1.26974174 Lattice="15.00000000 0.00000000 0.00000000 0.00000000 15.00000000 0.00000000 0.00000000 0.00000000 15.00000000" energy_frozen_part=0.00000000 Properties=species:S:1:pos:R:3:velocities:R:3:Z:I:1
H         2.14936684       6.50169585       9.72310516         0.00000000       0.00000000       0.00000000          1
H         4.04523466       7.26413823       7.81820741         0.00000000       0.00000000       0.00000000          1
H         2.00081551       7.74610313       5.97637768         0.00000000       0.00000000       0.00000000          1
H         2.19815519       5.25431395       7.22391299         0.00000000       0.00000000       0.00000000          1
H         0.10494993       6.98365875       7.88127579         0.00000000       0.00000000       0.00000000          1
H         1.95203000       8.99348063       8.47556372         0.00000000       0.00000000       0.00000000          1
6
pbc=[F, F, F] list_num_par=6 frozen=false iter=20000 energy=-1.26974174 Lattice="15.00000000 0.00000000 0.00000000 0.00000000 15.00000000 0.00000000 0.00000000 0.00000000 15.00000000" energy_frozen_part=0.00000000 Properties=species:S:1:pos:R:3:velocities:R:3:Z:I:1
H         2.17013799       6.55662394       9.74923949         0.00000000       0.00000000       0.00000000          1
H         4.01387980       7.23927403       7.76457356         0.00000000       0.00000000       0.00000000          1
H         1.91664719       7.73698632       5.98744230         0.00000000       0.00000000       0.00000000          1
H         2.10043405       5.26391829       7.27369114         0.00000000       0.00000000       0.00000000          1
H         0.07290460       7.05434868       7.97211248         0.00000000       0.00000000       0.00000000          1
H         1.98635523       9.02969485       8.46299059         0.00000000       0.00000000       0.00000000          1
6
pbc=[F, F, F] list_num_par=6 frozen=false iter=20000 energy=-1.26974174 Lattice="15.00000000 0.00000000 0.00000000 0.00000000 15.00000000 0.00000000 0.00000000 0.00000000 15.00000000" energy_frozen_part=0.00000000 Properties=species:S:1:pos:R:3:velocities:R:3:Z:I:1
H         2.17005969       6.55649274       9.74926358         0.00000000       0.00000000       0.00000000          1
H         4.01370082       7.23909239       7.76448815         0.00000000       0.00000000       0.00000000          1
H         1.91636337       7.73718133       5.98759285         0.00000000       0.00000000       0.00000000          1
H         2.09998989       5.26398711       7.27362593         0.00000000       0.00000000       0.00000000          1
H         0.07271956       7.05458115       7.97237302         0.00000000       0.00000000       0.00000000          1
H         1.98642709       9.02968697       8.46323749         0.00000000       0.00000000       0.00000000          1
6
pbc=[F, F, F] list_num_par=6 frozen=false iter=20000 energy=-1.26974174 Lattice="15.00000000 0.00000000 0.00000000 0.00000000 15.00000000 0.00000000 0.00000000 0.00000000 15.00000000" energy_frozen_part=0.00000000 Properties=species:S:1:pos:R:3:velocities:R:3:Z:I:1
H         2.17020817       6.55673243       9.74929368         0.00000000       0.00000000       0.00000000          1
H         4.01388668       7.23924196       7.76452798         0.00000000       0.00000000       0.00000000          1