6
pbc=[F, F, F] list_num_par=6 frozen=false iter=20000 energy=-1.26974174 Lattice="15.00000000 0.00000000 0.00000000 0.00000000 15.00000000 0.00000000 0.00000000 0.00000000 15.00000000" energy_frozen_part=0.00000000 Properties=species:S:1:pos:R:3:velocities:R:3:Z:I:1
H         8.10492014       5.55971142      12.57405302         0.00000000       0.00000000       0.00000000          1
H         7.36332192       2.99141799      13.38534418         0.00000000       0.00000000       0.00000000          1
H         9.78977712       3.39146620      12.05999327         0.00000000       0.00000000       0.00000000          1
H         8.43611581       4.63765617       9.95787305         0.00000000       0.00000000       0.00000000          1
H         7.69452593       2.06936418      10.76916270         0.00000000       0.00000000       0.00000000          1
H         6.00966371       4.23760669      11.28323351         0.00000000       0.00000000       0.00000000          1
6
pbc=[F, F, F] list_num_par=6 frozen=false iter=20000 energy=-1.26974174 Lattice="15.00000000 0.00000000 0.00000000 0.00000000 15.00000000 0.00000000 0.00000000 0.00000000 15.00000000" energy_frozen_part=0.00000000 Properties=species:S:1:pos:R:3:velocities:R:3:Z:I:1
H         8.09116320       5.56315840      12.57635935         0.00000000       0.00000000       0.00000000          1
H         7.36400967       2.98983995      13.38480359         0.00000000       0.00000000       0.00000000          1
H         9.78704172       3.40462154      12.05771410         0.00000000       0.00000000       0.00000000          1
H         8.42477035       4.64648328       9.95859438         0.00000000       0.00000000       0.00000000          1
H         7.69761674       2.07316927      10.76703529         0.00000000       0.00000000       0.00000000          1
H         6.00173924       4.23170934      11.28568864         0.00000000       0.00000000       0.00000000          1
6
pbc=[F, F, F] list_num_par=6 frozen=false iter=20000 energy=-1.26974174 Lattice="15.00000000 0.00000000 0.00000000 0.00000000 15.00000000 0.00000000 0.00000000 0.00000000 15.00000000" energy_frozen_part=0.00000000 Properties=species:S:1:pos:R:3:velocities:R:3:Z:I:1
H         8.10728294       5.55691199      12.57530804         0.00000000       0.00000000       0.00000000          1
H         7.37519057       2.98616931      13.38748575         0.00000000       0.00000000       0.00000000          1
H         9.79596402       3.39338917      12.05395411         0.00000000       0.00000000       0.00000000          1
H         8.43175648       4.63742997       9.95738459         0.00000000       0.00000000       0.00000000          1
H         7.69966140       2.06669106      10.76955561         0.00000000       0.00000000       0.00000000          1
H         6.01098214       4.23020813      11.29091859         0.00000000       0.00000000       0.00000000          1
6
pbc=[F, F, F] list_num_par=6 frozen=false iter=20000 energy=-1.26974174 Lattice="15.00000000 0.00000000 0.00000000 0.00000000 15.00000000 0.00000000 0.00000000 0.00000000 15.00000000" energy_frozen_part=0.00000000 Properties=species:S:1:pos:R:3:velocities:R:3:Z:I:1
H         8.10716300       5.55693332      12.57540290         0.00000000       0.00000000       0.00000000          1
H         7.37522596       2.98617307      13.38764028         0.00000000       0.00000000       0.00000000          1
H         9.79597167       3.39350394      12.05409179         0.00000000       0.00000000       0.00000000          1
H         8.43168046       4.63739844       9.95749831         0.00000000       0.00000000       0.00000000          1
H         7.69974881       2.06663576      10.76974188         0.00000000       0.00000000       0.00000000          1
H         6.01093704       4.23007287      11.29104964         0.00000000       0.00000000       0.00000000          1
6
pbc=[F, F, F] list_num_par=6 frozen=false iter=20000 energy=-1.26974174 Lattice="15.00000000 0.00000000 0.00000000 0.00000000 15.00000000 0.00000000 0.00000000 0.00000000 15.00000000" energy_frozen_part=0.00000000 Properties=species:S:1:pos:R:3:velocities:R:3:Z:I:1
H         8.10526687       5.55987029      12.57381279         0.00000000       0.00000000       0.00000000          1
H         7.36355826       2.99176209      13.38557783         0.00000000       0.00000000       0.00000000          1
H         9.79003044       3.39146356      12.06015036         0.00000000       0.00000000       0.00000000          1
H         8.43642679       4.63732278       9.95780195         0.00000000       0.00000000       0.00000000          1
H         7.69472538       2.06920664      10.76956276         0.00000000       0.00000000       0.00000000          1
H         6.00995710       4.23761880      11.28322818         0.00000000       0.00000000       0.00000000          1
6
pbc=[F, F, F] list_num_par=6 frozen=false iter=20000 energy=-1.26974174 Lattice="15.00000000 0.00000000 0.00000000 0.00000000 15.00000000 0.00000000 0.00000000 0.00000000 15.00000000" energy_frozen_part=0.00000000 Properties=species:S:1:pos:R:3:velocities:R:3:Z:I:1
H         8.09112157       5.56317939      12.57635918         0.00000000       0.00000000       0.00000000          1
H         7.36402036       2.98982852      13.38474566         0.00000000       0.00000000       0.00000000          1
H         9.78702076       3.40467904      12.05762021         0.00000000       0.00000000       0.00000000          1
H         8.42470336       4.64657708       9.95856113         0.00000000       0.00000000       0.00000000          1
H         7.69760372       2.07323155      10.76694745         0.00000000       0.00000000       0.00000000          1
H         6.00170243       4.23173049      11.28568137         0.00000000       0.00000000       0.00000000          1
6
pbc=[F, F, F] list_num_par=6 frozen=false iter=20000 energy=-1.26974174 Lattice="15.00000000 0.00000000 0.00000000 0.00000000 15.00000000 0.00000000 0.00000000 0.00000000 15.00000000" energy_frozen_part=0.00000000 Properties=species:S:1:pos:R:3:velocities:R:3:Z:I:1
H         8.10489846       5.55968809      12.57398188         0.00000000       0.00000000       0.00000000          1
H         7.36351138       2.99133530      13.38526628         0.00000000       0.00000000       0.00000000          1
H         9.78990639       3.39157152      12.05986673         0.00000000       0.00000000       0.00000000          1
H         8.43610798       4.63768161       9.95778810         0.00000000       0.00000000       0.00000000          1
H         7.69471915       2.06933251      10.76906714         0.00000000       0.00000000       0.00000000          1
H         6.00971010       4.23744510      11.28318783         0.00000000       0.00000000       0.00000000          1
6
pbc=[F, F, F] list_num_par=6 frozen=false iter=20000 energy=-1.26974174 Lattice="15.00000000 0.00000000 0.00000000 0.00000000 15.00000000 0.00000000 0.00000000 0.00000000 15.00000000" energy_frozen_part=0.00000000 Properties=species:S:1:pos:R:3:velocities:R:3:Z:I:1
H         8.10490370       5.55967932      12.57399087         0.00000000       0.00000000       0.00000000          1
H         7.36347772       2.99133221      13.38526069         0.00000000       0.00000000       0.00000000          1
H         9.78989521       3.39155162      12.05989087         0.00000000       0.00000000       0.00000000          1
H         8.43613813       4.63767227       9.95779773         0.00000000       0.00000000       0.00000000          1
H         7.69470949       2.06932300      10.76906488         0.00000000       0.00000000       0.00000000          1
H         6.00972195       4.23745485      11.28316417         0.00000000       0.00000000       0.00000000          1
6
pbc=[F, F, F] list_num_par=6 frozen=false iter=20000 energy=-1.26974174 Lattice="15.00000000 0.00000000 0.00000000 0.00000000 15.00000000 0.00000000 0.00000000 0.00000000 15.00000000" energy_frozen_part=0.00000000 Properties=species:S:1:pos:R:3:velocities:R:3:Z:I:1
H         8.09103728       5.56322415      12.57634951         0.00000000       0.00000000       0.00000000          1
H         7.36406231       2.98986093      13.38481891         0.00000000       0.00000000       0.00000000          1
H         9.78703629       3.40479596      12.05767124         0.00000000       0.00000000       0.00000000          1
H         8.42464515       4.64656212       9.95857893         0.00000000       0.00000000       0.00000000          1
H         7.69767517       2.07320357      10.76704501         0.00000000       0.00000000       0.00000000          1
H         6.00167353       4.23163390      11.28573132         0.00000000       0.00000000       0.00000000          1
6
pbc=[F, F, F] list_num_par=6 frozen=false iter=20000 energy=-1.26974174 Lattice="15.00000000 0.00000000 0.00000000 0.00000000 15.00000000 0.00000000 0.00000000 0.00000000 15.00000000" energy_frozen_part=0.00000000 Properties=species:S:1:pos:R:3:velocities:R:3:Z:I:1
H         8.10490046       5.55976000      12.57395194         0.00000000       0.00000000       0.00000000          1
H         7.36346684       2.99143735      13.38530594         0.00000000       0.00000000       0.00000000          1
H         9.78985315       3.39159698      12.05986313         0.00000000       0.00000000       0.00000000          1
H         8.43605621       4.63768004       9.95777305         0.00000000       0.00000000       0.00000000          1
H         7.69462192       2.06935850      10.76912965         0.00000000       0.00000000       0.00000000          1
H         6.00966865       4.23752037      11.28322154         0.00000000       0.00000000       0.00000000          1
6
pbc=[F, F, F] list_num_par=6 frozen=false iter=20000 energy=-1.26974174 Lattice="15.00000000 0.00000000 0.00000000 0.00000000 15.00000000 0.00000000 0.00000000 0.00000000 15.00000000" energy_frozen_part=0.00000000 Properties=species:S:1:pos:R:3:velocities:R:3:Z:I:1
H         8.10489823       5.55972096      12.57407013         0.00000000       0.00000000       0.00000000          1
H         7.36334955       2.99141183      13.38533221         0.00000000       0.00000000       0.00000000          1
H         9.78980290       3.39151754      12.05999691         0.00000000       0.00000000       0.00000000          1
H         8.43612751       4.63769614       9.95788028         0.00000000       0.00000000       0.00000000          1
H         7.69457692       2.06938053      10.76914566         0.00000000       0.00000000       0.00000000          1
H         6.00967417       4.23758926      11.28321665         0.00000000       0.00000000       0.00000000          1
6
pbc=[F, F, F] list_num_par=6 frozen=false iter=20000 energy=-1.26974174 Lattice="15.00000000 0.00000000 0.00000000 0.00000000 15.00000000 0.00000000 0.00000000 0.00000000 15.00000000" energy_frozen_part=0.00000000 Properties=species:S:1:pos:R:3:velocities:R:3:Z:I:1
H         8.10492727       5.55973112      12.57404391         0.00000000       0.00000000       0.00000000          1
H         7.36337123       2.99142790      13.38533347         0.00000000       0.00000000       0.00000000          1
H         9.78981484       3.39151981      12.05997479         0.00000000       0.00000000       0.00000000          1
H         8.43613407       4.63768574       9.95786077         0.00000000       0.00000000       0.00000000          1
H         7.69457871       2.06938034      10.76915002         0.00000000       0.00000000       0.00000000          1
H         6.00968504       4.23759625      11.28321992         0.00000000       0.00000000       0.00000000          1
6
pbc=[F, F, F] list_num_par=6 frozen=false iter=20000 energy=-1.26974174 Lattice="15.00000000 0.00000000 0.00000000 0.00000000 15.00000000 0.00000000 0.00000000 0.00000000 15.00000000" energy_frozen_part=0.00000000 Properties=species:S:1:pos:R:3:velocities:R:3:Z:I:1
H         8.10489392       5.55968876      12.57398877         0.00000000       0.00000000       0.00000000          1
H         7.36350323       2.99133013      13.38526103         0.00000000       0.00000000       0.00000000          1
H         9.78990101       3.39158077      12.05986217         0.00000000       0.00000000       0.00000000          1
H         8.43611350       4.63769216       9.95778653         0.00000000       0.00000000       0.00000000          1
H         7.69472390       2.06933467      10.76905973         0.00000000       0.00000000       0.00000000          1
H         6.00971720       4.23744522      11.28317715         0.00000000       0.00000000       0.00000000          1
6
pbc=[F, F, F] list_num_par=6 frozen=false iter=20000 energy=-1.26974174 Lattice="15.00000000 0.00000000 0.00000000 0.00000000 15.00000000 0.00000000 0.00000000 0.00000000 15.00000000" energy_frozen_part=0.00000000 Properties=species:S:1:pos:R:3:velocities:R:3:Z:I:1
H         8.10489208       5.55971863      12.57406977         0.00000000       0.00000000       0.00000000          1
H         7.36334385       2.99140532      13.38533965         0.00000000       0.00000000       0.00000000          1
H         9.78980249       3.39151759      12.05999721         0.00000000       0.00000000       0.00000000          1
H         8.43612398       4.63769722       9.95788448         0.00000000       0.00000000       0.00000000          1
H         7.69457665       2.06938310      10.76915080         0.00000000       0.00000000       0.00000000          1
H         6.00966777       4.23758348      11.28322200         0.00000000       0.00000000       0.00000000          1
6
pbc=[F, F, F] list_num_par=6 frozen=false iter=20000 energy=-1.26974174 Lattice="15.00000000 0.00000000 0.00000000 0.00000000 15.00000000 0.00000000 0.00000000 0.00000000 15.00000000" energy_frozen_part=0.00000000 Properties=species:S:1:pos:R:3:velocities:R:3:Z:I:1
H         8.10492777       5.55970176      12.57397899         0.00000000       0.00000000       0.00000000          1
H         7.36350379       2.99136708      13.38530126         0.00000000       0.00000000       0.00000000          1
H         9.78990627       3.39156096      12.05989379         0.00000000       0.00000000       0.00000000          1
H         8.43612124       4.63765544       9.95779386         0.00000000       0.00000000       0.00000000          1
H         7.69470347       2.06931895      10.76911617         0.00000000       0.00000000       0.00000000          1
H         6.00972451       4.23746724      11.28320700         0.00000000       0.00000000       0.00000000          1
6
pbc=[F, F, F] list_num_par=6 frozen=false iter=20000 energy=-1.26974174 Lattice="15.00000000 0.00000000 0.00000000 0.00000000 15.00000000 0.00000000 0.00000000 0.00000000 15.00000000" energy_frozen_part=0.00000000 Properties=species:S:1:pos:R:3:velocities:R:3:Z:I:1
H         8.10520173       5.55988706      12.57370529         0.00000000       0.00000000       0.00000000          1
H         7.36355839       2.99178513      13.38556166         0.00000000       0.00000000       0.00000000          1
H         9.79002360       3.39149601      12.06012836         0.00000000       0.00000000       0.00000000          1
H         8.43638922       4.63724304       9.95773107         0.00000000       0.00000000       0.00000000          1
H         7.69474609       2.06914342      10.76958826         0.00000000       0.00000000       0.00000000          1
H         6.00992804       4.23753555      11.28317051         0.00000000       0.00000000       0.00000000          1
6
pbc=[F, F, F] list_num_par=6 frozen=false iter=20000 energy=-1.26974174 Lattice="15.00000000 0.00000000 0.00000000 0.00000000 15.00000000 0.00000000 0.00000000 0.00000000 15.00000000" energy_frozen_part=0.00000000 Properties=species:S:1:pos:R:3:velocities:R:3:Z:I:1
H         8.10489627       5.55967835      12.57398637         0.00000000       0.00000000       0.00000000          1
H         7.36347098       2.99132607      13.38525386         0.00000000       0.00000000       0.00000000          1
H         9.78989660       3.39154822      12.05988906         0.00000000       0.00000000       0.00000000          1
H         8.43614879       4.63767434       9.95779443         0.00000000       0.00000000       0.00000000          1
H         7.69471646       2.06932578      10.76905975         0.00000000       0.00000000       0.00000000          1
H         6.00972283       4.23745552      11.28315222         0.00000000       0.00000000       0.00000000          1
6
pbc=[F, F, F] list_num_par=6 frozen=false iter=20000 energy=-1.26974174 Lattice="15.00000000 0.00000000 0.00000000 0.00000000 15.00000000 0.00000000 0.00000000 0.00000000 15.00000000" energy_frozen_part=0.00000000 Properties=species:S:1:pos:R:3:velocities:R:3:Z:I:1
H         8.10521077       5.55987951      12.57374324         0.00000000       0.00000000       0.00000000          1
H         7.36356378       2.99177094      13.38557793         0.00000000       0.00000000       0.00000000          1
H         9.79002871       3.39149948      12.06013913         0.00000000       0.00000000       0.00000000          1
H         8.43639163       4.63727053       9.95775580         0.00000000       0.00000000       0.00000000          1
H         7.69474666       2.06916804      10.76958971         0.00000000       0.00000000       0.00000000          1
H         6.00992675       4.23754451      11.28320033         0.00000000       0.00000000       0.00000000          1
6
pbc=[F, F, F] list_num_par=6 frozen=false iter=20000 energy=-1.26974174 Lattice="15.00000000 0.00000000 0.00000000 0.00000000 15.00000000 0.00000000 0.00000000 0.00000000 15.00000000" energy_frozen_part=0.00000000 Properties=species:S:1:pos:R:3:velocities:R:3:Z:I:1
H         8.10531698       5.55986127      12.57382145         0.00000000       0.00000000       0.00000000          1
H         7.36357636       2.99176039      13.38558866         0.00000000       0.00000000       0.00000000          1
H         9.79004451       3.39142255      12.06015178         0.00000000       0.00000000       0.00000000          1
H         8.43645376       4.63730880       9.95781093         0.00000000       0.00000000       0.00000000          1
H         7.69471269       2.06920260      10.76957332         0.00000000       0.00000000       0.00000000          1
H         6.00998052       4.23764128      11.28324743         0.00000000       0.00000000       0.00000000          1
6
pbc=[F, F, F] list_num_par=6 frozen=false iter=20000 energy=-1.26974174 Lattice="15.00000000 0.00000000 0.00000000 0.00000000 15.00000000 0.00000000 0.00000000 0.00000000 15.00000000" energy_frozen_part=0.00000000 Properties=species:S:1:pos:R:3:velocities:R:3:Z:I:1
H         8.09104711       5.56321040      12.57638087         0.00000000       0.00000000       0.00000000          1
H         7.36404456       2.98984335      13.38481148         0.00000000       0.00000000       0.00000000          1
H         9.78702286       3.40476264      12.05767368         0.00000000       0.00000000       0.00000000          1
H         8.42465648       4.64657632       9.95859848         0.00000000       0.00000000       0.00000000          1
H         7.69764565       2.07321199      10.76703061         0.00000000       0.00000000       0.00000000          1
H         6.00167379       4.23166136      11.28573616         0.00000000       0.00000000       0.00000000          1
6
pbc=[F, F, F] list_num_par=6 frozen=false iter=20000 energy=-1.26974174 Lattice="15.00000000 0.00000000 0.00000000 0.00000000 15.00000000 0.00000000 0.00000000 0.00000000 15.00000000" energy_frozen_part=0.00000000 Properties=species:S:1:pos:R:3:velocities:R:3:Z:I:1
H         8.09112230       5.56317677      12.57636723         0.00000000       0.00000000       0.00000000          1
H         7.36401824       2.98982551      13.38473921         0.00000000       0.00000000       0.00000000          1
H         9.78702072       3.40467687      12.05762455         0.00000000       0.00000000       0.00000000          1
H         8.42470311       4.64657834       9.95857040         0.00000000       0.00000000       0.00000000          1
H         7.69760347       2.07322906      10.76694394         0.00000000       0.00000000       0.00000000          1
H         6.00169865       4.23172633      11.28568443         0.00000000       0.00000000       0.00000000          1
6
pbc=[F, F, F] list_num_par=6 frozen=false iter=20000 energy=-1.26974174 Lattice="15.00000000 0.00000000 0.00000000 0.00000000 15.00000000 0.00000000 0.00000000 0.00000000 15.00000000" energy_frozen_part=0.00000000 Properties=species:S:1:pos:R:3:velocities:R:3:Z:I:1
H         8.10492348       5.55969943      12.57397985         0.00000000       0.00000000       0.00000000          1
H         7.36350506       2.99136196      13.38530000         0.00000000       0.00000000       0.00000000          1
H         9.78990447       3.39155989      12.05988295         0.00000000       0.00000000       0.00000000          1
H         8.43611575       4.63764877       9.95779366         0.00000000       0.00000000       0.00000000          1
H         7.69469865       2.06931240      10.76911887         0.00000000       0.00000000       0.00000000          1
H         6.00971928       4.23746023      11.28320886         0.00000000       0.00000000       0.00000000          1
6
pbc=[F, F, F] list_num_par=6 frozen=false iter=20000 energy=-1.26974174 Lattice="15.00000000 0.00000000 0.00000000 0.00000000 15.00000000 0.00000000 0.00000000 0.00000000 15.00000000" energy_frozen_part=0.00000000 Properties=species:S:1:pos:R:3:velocities:R:3:Z:I:1
H         8.09112655       5.56316394      12.57638610         0.00000000       0.00000000       0.00000000          1
H         7.36395037       2.98984074      13.38478497         0.00000000       0.00000000       0.00000000          1
H         9.78701144       3.40462621      12.05774578         0.00000000       0.00000000       0.00000000          1
H         8.42478848       4.64651562       9.95861734         0.00000000       0.00000000       0.00000000          1
H         7.69761052       2.07319300      10.76701686         0.00000000       0.00000000       0.00000000          1
H         6.00172758       4.23173427      11.28566037         0.00000000       0.00000000       0.00000000          1
6
pbc=[F, F, F] list_num_par=6 frozen=false iter=20000 energy=-1.26974174 Lattice="15.00000000 0.00000000 0.00000000 0.00000000 15.00000000 0.00000000 0.00000000 0.00000000 15.00000000" energy_frozen_part=0.00000000 Properties=species:S:1:pos:R:3:velocities:R:3:Z:I:1
H         8.09114056       5.56317283      12.57638726         0.00000000       0.00000000       0.00000000          1
H         7.36395747       2.98985815      13.38480776         0.00000000       0.00000000       0.00000000          1
H         9.78700242       3.40462463      12.05774310         0.00000000       0.00000000       0.00000000          1
H         8.42477282       4.64650431       9.95861820         0.00000000       0.00000000       0.00000000          1
H         7.69758609       2.07319275      10.76703787         0.00000000       0.00000000       0.00000000          1
H         6.00172744       4.23174126      11.28568154         0.00000000       0.00000000       0.00000000          1
6
pbc=[F, F, F] list_num_par=6 frozen=false iter=20000 energy=-1.26974174 Lattice="15.00000000 0.00000000 0.00000000 0.00000000 15.00000000 0.00000000 0.00000000 0.00000000 15.00000000" energy_frozen_part=0.00000000 Properties=species:S:1:pos:R:3:velocities:R:3:Z:I:1
H         8.10490628       5.55975912      12.57394410         0.00000000       0.00000000       0.00000000          1
H         7.36347687       2.99144138      13.38531099         0.00000000       0.00000000       0.00000000          1
H         9.78985638       3.39159130      12.05985370         0.00000000       0.00000000       0.00000000          1
H         8.43605027       4.63767086       9.95777118         0.00000000       0.00000000       0.00000000          1
H         7.69461564       2.06935743      10.76913448         0.00000000       0.00000000       0.00000000          1
H         6.00966990       4.23752186      11.28322417         0.00000000       0.00000000       0.00000000          1
6
pbc=[F, F, F] list_num_par=6 frozen=false iter=20000 energy=-1.26974174 Lattice="15.00000000 0.00000000 0.00000000 0.00000000 15.00000000 0.00000000 0.00000000 0.00000000 15.00000000" energy_frozen_part=0.00000000 Properties=species:S:1:pos:R:3:velocities:R:3:Z:I:1
H         8.09106024       5.56321472      12.57638458         0.00000000       0.00000000       0.00000000          1
H         7.36406309       2.98985901      13.38484806         0.00000000       0.00000000       0.00000000          1
H         9.78703192       3.40476230      12.05769447         0.00000000       0.00000000       0.00000000          1
H         8.42464380       4.64655550       9.95861163         0.00000000       0.00000000       0.00000000          1
H         7.69764424       2.07319937      10.76707223         0.00000000       0.00000000       0.00000000          1
H         6.00167016       4.23165141      11.28576839         0.00000000       0.00000000       0.00000000          1
6
pbc=[F, F, F] list_num_par=6 frozen=false iter=20000 energy=-1.26974174 Lattice="15.00000000 0.00000000 0.00000000 0.00000000 15.00000000 0.00000000 0.00000000 0.00000000 15.00000000" energy_frozen_part=0.00000000 Properties=species:S:1:pos:R:3:velocities:R:3:Z:I:1
H         8.10527381       5.55986343      12.57381593         0.00000000       0.00000000       0.00000000          1
H         7.36355737       2.99175964      13.38558412         0.00000000       0.00000000       0.00000000          1
H         9.79003421       3.39144631      12.06015804         0.00000000       0.00000000       0.00000000          1
H         8.43644116       4.63730757       9.95780638         0.00000000       0.00000000       0.00000000          1
H         7.69472447       2.06920237      10.76957245         0.00000000       0.00000000       0.00000000          1
H         6.00996598       4.23761488      11.28322842         0.00000000       0.00000000       0.00000000          1
6
pbc=[F, F, F] list_num_par=6 frozen=false iter=20000 energy=-1.26974174 Lattice="15.00000000 0.00000000 0.00000000 0.00000000 15.00000000 0.00000000 0.00000000 0.00000000 15.00000000" energy_frozen_part=0.00000000 Properties=species:S:1:pos:R:3:velocities:R:3:Z:I:1
H         8.09111785       5.56316832      12.57639504         0.00000000       0.00000000       0.00000000          1
H         7.36395782       2.98984350      13.38478487         0.00000000       0.00000000       0.00000000          1
H         9.78701458       3.40464396      12.05774054         0.00000000       0.00000000       0.00000000          1
H         8.42477092       4.64653163       9.95862228         0.00000000       0.00000000       0.00000000          1
H         7.69761455       2.07320076      10.76701517         0.00000000       0.00000000       0.00000000          1
H         6.00172155       4.23172979      11.28566441         0.00000000       0.00000000       0.00000000          1
6
pbc=[F, F, F] list_num_par=6 frozen=false iter=20000 energy=-1.26974174 Lattice="15.00000000 0.00000000 0.00000000 0.00000000 15.00000000 0.00000000 0.00000000 0.00000000 15.00000000" energy_frozen_part=0.00000000 Properties=species:S:1:pos:R:3:velocities:R:3:Z:I:1
H         8.10487072       5.55971472      12.57407257         0.00000000       0.00000000       0.00000000          1
H         7.36335692       2.99138630      13.38532720         0.00000000       0.00000000       0.00000000          1
H         9.78979233       3.39152437      12.05997776         0.00000000       0.00000000       0.00000000          1
H         8.43609559       4.63770170       9.95787665         0.00000000       0.00000000       0.00000000          1
H         7.69457209       2.06937681      10.76913050         0.00000000       0.00000000       0.00000000          1
H         6.00965632       4.23756707      11.28322923         0.00000000       0.00000000       0.00000000          1
6
pbc=[F, F, F] list_num_par=6 frozen=false iter=20000 energy=-1.26974174 Lattice="15.00000000 0.00000000 0.00000000 0.00000000 15.00000000 0.00000000 0.00000000 0.00000000 15.00000000" energy_frozen_part=0.00000000 Properties=species:S:1:pos:R:3:velocities:R:3:Z:I:1
H         8.10716497       5.55693119      12.57540697         0.00000000       0.00000000       0.00000000          1
H         7.37523581       2.98616820      13.38764405         0.00000000       0.00000000       0.00000000          1
H         9.79597572       3.39350147      12.05408494         0.00000000       0.00000000       0.00000000          1
H         8.43168105       4.63740158       9.95749902         0.00000000       0.00000000       0.00000000          1
H         7.69974657       2.06663971      10.76973996         0.00000000       0.00000000       0.00000000          1
H         6.01093886       4.23006719      11.29105151         0.00000000       0.00000000       0.00000000          1
6
pbc=[F, F, F] list_num_par=6 frozen=false iter=20000 energy=-1.26974174 Lattice="15.00000000 0.00000000 0.00000000 0.00000000 15.00000000 0.00000000 0.00000000 0.00000000 15.00000000" energy_frozen_part=0.00000000 Properties=species:S:1:pos:R:3:velocities:R:3:Z:I:1
H         8.09111605       5.56318497      12.57637395         0.00000000       0.00000000       0.00000000          1
H         7.36401451       2.98983395      13.38475169         0.00000000       0.00000000       0.00000000          1