6
pbc=[F, F, F] list_num_par=6 frozen=false iter=9 energy=192.07666986 Lattice="15.00000000 0.00000000 0.00000000 0.00000000 15.00000000 0.00000000 0.00000000 0.00000000 15.00000000" energy_frozen_part=0.00000000 Properties=species:S:1:pos:R:3:velocities:R:3:Z:I:1
H         1.61179912      10.06306738      12.25999877         0.00000000       0.00000000       0.00000000          1
H         2.96396827       4.64765840       4.09476635         0.00000000       0.00000000       0.00000000          1
H         9.31108419       4.95227052       5.06957159         0.00000000       0.00000000       0.00000000          1
H         1.57754938       8.59547353      12.01196317         0.00000000       0.00000000       0.00000000          1
H         2.01498337       2.50019945       9.48510652         0.00000000       0.00000000       0.00000000          1
H        13.01564466      14.94122284       1.37609431         0.00000000       0.00000000       0.00000000          1
6
pbc=[F, F, F] list_num_par=6 frozen=false iter=19 energy=2.72613673 Lattice="15.00000000 0.00000000 0.00000000 0.00000000 15.00000000 0.00000000 0.00000000 0.00000000 15.00000000" energy_frozen_part=0.00000000 Properties=species:S:1:pos:R:3:velocities:R:3:Z:I:1
H         2.97789268       9.97900556      12.97704892         0.00000000       0.00000000       0.00000000          1
H        10.43314705       1.08710892      13.03144087         0.00000000       0.00000000       0.00000000          1
H         4.18779328      10.06438353       5.06195904         0.00000000       0.00000000       0.00000000          1
H         9.33860908       2.79765903      12.68515553         0.00000000       0.00000000       0.00000000          1
H        11.41648351       8.80376248      10.20424626         0.00000000       0.00000000       0.00000000          1
H         1.76042254      10.82365905       4.41488238         0.00000000       0.00000000       0.00000000          1
6
pbc=[F, F, F] list_num_par=6 frozen=false iter=29 energy=0.87341458 Lattice="15.00000000 0.00000000 0.00000000 0.00000000 15.00000000 0.00000000 0.00000000 0.00000000 15.00000000" energy_frozen_part=0.00000000 Properties=species:S:1:pos:R:3:velocities:R:3:Z:I:1
H         5.23802300       6.13382665      13.68119489         0.00000000       0.00000000       0.00000000          1
H         4.99676709       5.54052983      11.52779288         0.00000000       0.00000000       0.00000000          1
H         3.57248130       3.32471279       3.64843079         0.00000000       0.00000000       0.00000000          1
H         0.68064173       3.82825537       6.04426230         0.00000000       0.00000000       0.00000000          1
H        10.62020883       0.03429945      10.83823155         0.00000000       0.00000000       0.00000000          1
H         2.13671977       4.20081371       1.99461397         0.00000000       0.00000000       0.00000000          1
6
pbc=[F, F, F] list_num_par=6 frozen=false iter=39 energy=-0.00216351 Lattice="15.00000000 0.00000000 0.00000000 0.00000000 15.00000000 0.00000000 0.00000000 0.00000000 15.00000000" energy_frozen_part=0.00000000 Properties=species:S:1:pos:R:3:velocities:R:3:Z:I:1
H        13.13226876       8.41688326      14.08875255         0.00000000       0.00000000       0.00000000          1
H         0.23719736       4.06980585       2.54873053         0.00000000       0.00000000       0.00000000          1
H         1.50087863      12.45447828       2.54518404         0.00000000       0.00000000       0.00000000          1
H         4.09163076       6.33595326       7.61433622         0.00000000       0.00000000       0.00000000          1
H         8.14482808       6.42951967       1.00463704         0.00000000       0.00000000       0.00000000          1
H         6.27078800      14.11858115       9.95930998         0.00000000       0.00000000       0.00000000          1
6
pbc=[F, F, F] list_num_par=6 frozen=false iter=49 energy=-0.00603976 Lattice="15.00000000 0.00000000 0.00000000 0.00000000 15.00000000 0.00000000 0.00000000 0.00000000 15.00000000" energy_frozen_part=0.00000000 Properties=species:S:1:pos:R:3:velocities:R:3:Z:I:1
H         7.51467155      10.44971190      10.19579709         0.00000000       0.00000000       0.00000000          1
H         0.28121163       9.16803211       2.09144070         0.00000000       0.00000000       0.00000000          1
H        10.45249806       3.64663009       0.38791111         0.00000000       0.00000000       0.00000000          1
H         3.02546682      10.46222106      14.07834036         0.00000000       0.00000000       0.00000000          1
H        11.13614465       9.63236479       5.11919416         0.00000000       0.00000000       0.00000000          1
H        10.87317847       7.42118951      14.25166400         0.00000000       0.00000000       0.00000000          1
6
pbc=[F, F, F] list_num_par=6 frozen=false iter=59 energy=-0.00730830 Lattice="15.00000000 0.00000000 0.00000000 0.00000000 15.00000000 0.00000000 0.00000000 0.00000000 15.00000000" energy_frozen_part=0.00000000 Properties=species:S:1:pos:R:3:velocities:R:3:Z:I:1
H         8.91078418      14.64150629       9.55428638         0.00000000       0.00000000       0.00000000          1
H         4.83605253      13.60586708       7.07090218         0.00000000       0.00000000       0.00000000          1
H        14.53239869       4.77841671      13.34451144         0.00000000       0.00000000       0.00000000          1
H         0.87062971       7.58617164       0.69284670         0.00000000       0.00000000       0.00000000          1
H        11.98261015      12.53738719       2.08237404         0.00000000       0.00000000       0.00000000          1
H        11.02842064       0.84444187       0.46474603         0.00000000       0.00000000       0.00000000          1
6
pbc=[F, F, F] list_num_par=6 frozen=false iter=69 energy=-0.00829617 Lattice="15.00000000 0.00000000 0.00000000 0.00000000 15.00000000 0.00000000 0.00000000 0.00000000 15.00000000" energy_frozen_part=0.00000000 Properties=species:S:1:pos:R:3:velocities:R:3:Z:I:1
H         0.13449157       9.38713256       0.68488664         0.00000000       0.00000000       0.00000000          1
H        14.25364904       0.77821276       6.15778116         0.00000000       0.00000000       0.00000000          1
H        12.31252535       0.45708069       1.55643906         0.00000000       0.00000000       0.00000000          1
H         3.61637129       0.29268189      11.43430065         0.00000000       0.00000000       0.00000000          1
H        11.78123235       6.45439007       1.40882826         0.00000000       0.00000000       0.00000000          1
H         7.20163662      13.51845266       7.15400974         0.00000000       0.00000000       0.00000000          1
6
pbc=[F, F, F] list_num_par=6 frozen=false iter=79 energy=-0.01209072 Lattice="15.00000000 0.00000000 0.00000000 0.00000000 15.00000000 0.00000000 0.00000000 0.00000000 15.00000000" energy_frozen_part=0.00000000 Properties=species:S:1:pos:R:3:velocities:R:3:Z:I:1
H        13.19438767       5.87561092       3.46212637         0.00000000       0.00000000       0.00000000          1
H         3.31126624       0.54484843      11.18706354         0.00000000       0.00000000       0.00000000          1
H        12.77588926      11.58121914      13.71359663         0.00000000       0.00000000       0.00000000          1
H         8.88291051       1.81568938      13.94001247         0.00000000       0.00000000       0.00000000          1
H         2.59436351       3.25320003       7.59346275         0.00000000       0.00000000       0.00000000          1
H         0.51947386       8.85339476      14.65420606         0.00000000       0.00000000       0.00000000          1
6
pbc=[F, F, F] list_num_par=6 frozen=false iter=89 energy=-0.01453368 Lattice="15.00000000 0.00000000 0.00000000 0.00000000 15.00000000 0.00000000 0.00000000 0.00000000 15.00000000" energy_frozen_part=0.00000000 Properties=species:S:1:pos:R:3:velocities:R:3:Z:I:1
H         3.24336138       6.34608855      11.67687295         0.00000000       0.00000000       0.00000000          1
H         9.69694721       8.33836183       1.34056565         0.00000000       0.00000000       0.00000000          1
H         4.09845160       5.93062450       2.55407430         0.00000000       0.00000000       0.00000000          1
H         7.82663927       4.24279689       8.10248980         0.00000000       0.00000000       0.00000000          1
H        13.99522799       1.49013691      12.18831477         0.00000000       0.00000000       0.00000000          1
H         2.90438252       3.07900733      14.92377228         0.00000000       0.00000000       0.00000000          1
6
pbc=[F, F, F] list_num_par=6 frozen=false iter=99 energy=-0.01763004 Lattice="15.00000000 0.00000000 0.00000000 0.00000000 15.00000000 0.00000000 0.00000000 0.00000000 15.00000000" energy_frozen_part=0.00000000 Properties=species:S:1:pos:R:3:velocities:R:3:Z:I:1
H         8.90943780       1.94498413       2.90410759         0.00000000       0.00000000       0.00000000          1
H         3.20629716       1.44995546      10.84541793         0.00000000       0.00000000       0.00000000          1
H         5.05325582       4.87288361       4.76993400         0.00000000       0.00000000       0.00000000          1
H         4.99720914      12.46733451       1.15645107         0.00000000       0.00000000       0.00000000          1
H         1.73631054      13.91336188       5.49808662         0.00000000       0.00000000       0.00000000          1
H         9.19003496       5.44093442       7.48898908         0.00000000       0.00000000       0.00000000          1
6
pbc=[F, F, F] list_num_par=6 frozen=false iter=109 energy=-0.01960355 Lattice="15.00000000 0.00000000 0.00000000 0.00000000 15.00000000 0.00000000 0.00000000 0.00000000 15.00000000" energy_frozen_part=0.00000000 Properties=species:S:1:pos:R:3:velocities:R:3:Z:I:1
H         7.49256934       5.77999264       1.62491950         0.00000000       0.00000000       0.00000000          1
H        11.54695477      14.13018187      11.91127165         0.00000000       0.00000000       0.00000000          1
H         6.94607987       3.15292868       7.33517715         0.00000000       0.00000000       0.00000000          1
H         8.28675612      14.07619642       4.27142510         0.00000000       0.00000000       0.00000000          1
H         9.31300836       9.11868365       3.99170966         0.00000000       0.00000000       0.00000000          1
H         1.49636851      12.32351390      10.66251210         0.00000000       0.00000000       0.00000000          1
6
pbc=[F, F, F] list_num_par=6 frozen=false iter=119 energy=-0.02284940 Lattice="15.00000000 0.00000000 0.00000000 0.00000000 15.00000000 0.00000000 0.00000000 0.00000000 15.00000000" energy_frozen_part=0.00000000 Properties=species:S:1:pos:R:3:velocities:R:3:Z:I:1
H         9.68193192       1.92221357      12.84904733         0.00000000       0.00000000       0.00000000          1
H        10.23420784      11.05807243       2.76038978         0.00000000       0.00000000       0.00000000          1
H         2.97871846       6.35029486      11.87007068         0.00000000       0.00000000       0.00000000          1
H        13.45169773       0.10843940      12.92585441         0.00000000       0.00000000       0.00000000          1
H         5.41311975      13.65992017       2.45415391         0.00000000       0.00000000       0.00000000          1
H        14.81332790       7.18495011       3.58559318         0.00000000       0.00000000       0.00000000          1
6
pbc=[F, F, F] list_num_par=6 frozen=false iter=129 energy=-0.02663297 Lattice="15.00000000 0.00000000 0.00000000 0.00000000 15.00000000 0.00000000 0.00000000 0.00000000 15.00000000" energy_frozen_part=0.00000000 Properties=species:S:1:pos:R:3:velocities:R:3:Z:I:1
H         5.33340240       7.89871447      13.38661352         0.00000000       0.00000000       0.00000000          1
H         1.98341374       4.26253432       2.53924564         0.00000000       0.00000000       0.00000000          1
H         2.25119040       2.95901406      14.54082460         0.00000000       0.00000000       0.00000000          1
H         4.90314014       6.17422740       5.09014821         0.00000000       0.00000000       0.00000000          1
H         5.36414338       0.93006006       8.16509398         0.00000000       0.00000000       0.00000000          1
H         9.47131460       6.64134637       3.31266516         0.00000000       0.00000000       0.00000000          1
6
pbc=[F, F, F] list_num_par=6 frozen=false iter=139 energy=-0.03399809 Lattice="15.00000000 0.00000000 0.00000000 0.00000000 15.00000000 0.00000000 0.00000000 0.00000000 15.00000000" energy_frozen_part=0.00000000 Properties=species:S:1:pos:R:3:velocities:R:3:Z:I:1
H         2.17883042       6.94914364       0.94864540         0.00000000       0.00000000       0.00000000          1
H         7.55349191       3.49726351       5.66776680         0.00000000       0.00000000       0.00000000          1
H         7.61334533       7.24563184       2.43278508         0.00000000       0.00000000       0.00000000          1
H         9.90809872       8.19364989       9.33020401         0.00000000       0.00000000       0.00000000          1
H        12.32556953       4.38822603      12.36755603         0.00000000       0.00000000       0.00000000          1
H         9.96706927       0.32335729       6.87180928         0.00000000       0.00000000       0.00000000          1
6
pbc=[F, F, F] list_num_par=6 frozen=false iter=149 energy=-0.04155643 Lattice="15.00000000 0.00000000 0.00000000 0.00000000 15.00000000 0.00000000 0.00000000 0.00000000 15.00000000" energy_frozen_part=0.00000000 Properties=species:S:1:pos:R:3:velocities:R:3:Z:I:1
H         7.90626919      14.36002853      14.66942696         0.00000000       0.00000000       0.00000000          1
H         0.12791594       1.25386315       0.82558573         0.00000000       0.00000000       0.00000000          1
H         8.05087900       5.42257028      14.28757339         0.00000000       0.00000000       0.00000000          1
H        11.41933154       6.80515444      14.33911349         0.00000000       0.00000000       0.00000000          1
H         5.33525770       1.48354052       2.79335613         0.00000000       0.00000000       0.00000000          1
H        14.67278557       0.48678561      12.73031739         0.00000000       0.00000000       0.00000000          1
6
pbc=[F, F, F] list_num_par=6 frozen=false iter=159 energy=-0.04796543 Lattice="15.00000000 0.00000000 0.00000000 0.00000000 15.00000000 0.00000000 0.00000000 0.00000000 15.00000000" energy_frozen_part=0.00000000 Properties=species:S:1:pos:R:3:velocities:R:3:Z:I:1
H         4.21149203       8.97816603       1.76308974         0.00000000       0.00000000       0.00000000          1
H         5.26459961       7.78888279       5.01296646         0.00000000       0.00000000       0.00000000          1
H         6.50638674       1.90891567       3.31055643         0.00000000       0.00000000       0.00000000          1
H         2.65832958      12.67819423      12.71498428         0.00000000       0.00000000       0.00000000          1
H        13.66070021       4.74101969      14.37181310         0.00000000       0.00000000       0.00000000          1
H        10.61366856       0.47616997       5.48209236         0.00000000       0.00000000       0.00000000          1
6
pbc=[F, F, F] list_num_par=6 frozen=false iter=169 energy=-0.05114987 Lattice="15.00000000 0.00000000 0.00000000 0.00000000 15.00000000 0.00000000 0.00000000 0.00000000 15.00000000" energy_frozen_part=0.00000000 Properties=species:S:1:pos:R:3:velocities:R:3:Z:I:1
H        14.11402019       2.53305757       2.82924212         0.00000000       0.00000000       0.00000000          1
H         7.59230771       7.14793607       0.80370659         0.00000000       0.00000000       0.00000000          1
H         1.35215482       3.70562853       1.82301161         0.00000000       0.00000000       0.00000000          1
H         2.88140155       5.03730864      10.53489819         0.00000000       0.00000000       0.00000000          1
H         3.14059713       2.91965394       4.71595668         0.00000000       0.00000000       0.00000000          1
H        12.50495361       9.17287498       5.08486806         0.00000000       0.00000000       0.00000000          1
6
pbc=[F, F, F] list_num_par=6 frozen=false iter=179 energy=-0.05392395 Lattice="15.00000000 0.00000000 0.00000000 0.00000000 15.00000000 0.00000000 0.00000000 0.00000000 15.00000000" energy_frozen_part=0.00000000 Properties=species:S:1:pos:R:3:velocities:R:3:Z:I:1
H         9.40611912      12.88002462       5.69077228         0.00000000       0.00000000       0.00000000          1
H         1.83571400       4.74241704       6.33677804         0.00000000       0.00000000       0.00000000          1
H         4.98036609       8.88698776       3.68737765         0.00000000       0.00000000       0.00000000          1
H         0.41527733       9.66465150      10.13765018         0.00000000       0.00000000       0.00000000          1
H        10.52230024       8.35852460      10.69889917         0.00000000       0.00000000       0.00000000          1
H         3.62201190       7.24460551       0.91002389         0.00000000       0.00000000       0.00000000          1
6
pbc=[F, F, F] list_num_par=6 frozen=false iter=189 energy=-0.05856094 Lattice="15.00000000 0.00000000 0.00000000 0.00000000 15.00000000 0.00000000 0.00000000 0.00000000 15.00000000" energy_frozen_part=0.00000000 Properties=species:S:1:pos:R:3:velocities:R:3:Z:I:1
H         1.80593299       8.38748945       0.32856691         0.00000000       0.00000000       0.00000000          1
H         3.90595366       5.58736797       6.27417440         0.00000000       0.00000000       0.00000000          1
H         4.01756511       7.10584074       4.21572046         0.00000000       0.00000000       0.00000000          1
H        14.63652261       1.20582574      14.23471267         0.00000000       0.00000000       0.00000000          1
H         9.56276192       3.74569415      11.14264273         0.00000000       0.00000000       0.00000000          1
H        11.52703892       0.13116016       5.22479231         0.00000000       0.00000000       0.00000000          1
6
pbc=[F, F, F] list_num_par=6 frozen=false iter=199 energy=-0.06568291 Lattice="15.00000000 0.00000000 0.00000000 0.00000000 15.00000000 0.00000000 0.00000000 0.00000000 15.00000000" energy_frozen_part=0.00000000 Properties=species:S:1:pos:R:3:velocities:R:3:Z:I:1
H         5.41802715       8.18381077       8.53881971         0.00000000       0.00000000       0.00000000          1
H         9.87829686      12.34695567       7.90910508         0.00000000       0.00000000       0.00000000          1
H         0.43457770       1.60869073       8.52684370         0.00000000       0.00000000       0.00000000          1
H         8.48633196       3.11337579       0.20476646         0.00000000       0.00000000       0.00000000          1
H         3.96238423      10.27845714       8.10178446         0.00000000       0.00000000       0.00000000          1
H         1.46641152       7.22862123       2.15030819         0.00000000       0.00000000       0.00000000          1
6
pbc=[F, F, F] list_num_par=6 frozen=false iter=209 energy=-0.07304134 Lattice="15.00000000 0.00000000 0.00000000 0.00000000 15.00000000 0.00000000 0.00000000 0.00000000 15.00000000" energy_frozen_part=0.00000000 Properties=species:S:1:pos:R:3:velocities:R:3:Z:I:1
H         9.00011245      14.27188252       3.69737588         0.00000000       0.00000000       0.00000000          1
H        12.09480375      11.01223961      13.18799426         0.00000000       0.00000000       0.00000000          1
H        13.33892850       3.46548186       8.54036426         0.00000000       0.00000000       0.00000000          1
H         7.96296205      12.29944140       5.96478779         0.00000000       0.00000000       0.00000000          1
H         1.96668237       4.03151681      11.58665920         0.00000000       0.00000000       0.00000000          1
H         0.92291726       9.21600143       5.53765661         0.00000000       0.00000000       0.00000000          1
6
pbc=[F, F, F] list_num_par=6 frozen=false iter=219 energy=-0.07861947 Lattice="15.00000000 0.00000000 0.00000000 0.00000000 15.00000000 0.00000000 0.00000000 0.00000000 15.00000000" energy_frozen_part=0.00000000 Properties=species:S:1:pos:R:3:velocities:R:3:Z:I:1
H        10.35519395       6.12480191      10.67598421         0.00000000       0.00000000       0.00000000          1
H         4.23828766      13.18313668       3.90324772         0.00000000       0.00000000       0.00000000          1
H         1.17838825       9.70208321       2.17173639         0.00000000       0.00000000       0.00000000          1
H        13.05829413       3.42314603       3.13263939         0.00000000       0.00000000       0.00000000          1
H         9.55127501      12.23121175       6.68056171         0.00000000       0.00000000       0.00000000          1
H        10.03170433      10.88974782       9.64051567         0.00000000       0.00000000       0.00000000          1
6
pbc=[F, F, F] list_num_par=6 frozen=false iter=229 energy=-0.08309853 Lattice="15.00000000 0.00000000 0.00000000 0.00000000 15.00000000 0.00000000 0.00000000 0.00000000 15.00000000" energy_frozen_part=0.00000000 Properties=species:S:1:pos:R:3:velocities:R:3:Z:I:1
H         4.34826916      14.44940129       1.37220771         0.00000000       0.00000000       0.00000000          1
H         7.32523501       7.48739327       2.13297548         0.00000000       0.00000000       0.00000000          1
H        11.53615489      14.35611137      13.37366008         0.00000000       0.00000000       0.00000000          1
H         7.85634719       9.58329538       0.63164511         0.00000000       0.00000000       0.00000000          1
H         7.26187146      13.61999824       8.91923775         0.00000000       0.00000000       0.00000000          1
H         5.43783615       7.25302450      11.13563127         0.00000000       0.00000000       0.00000000          1
6
pbc=[F, F, F] list_num_par=6 frozen=false iter=239 energy=-0.09155727 Lattice="15.00000000 0.00000000 0.00000000 0.00000000 15.00000000 0.00000000 0.00000000 0.00000000 15.00000000" energy_frozen_part=0.00000000 Properties=species:S:1:pos:R:3:velocities:R:3:Z:I:1
H        14.54358992       4.04226420       4.36317168         0.00000000       0.00000000       0.00000000          1
H        10.97220804       5.35168361      10.50804772         0.00000000       0.00000000       0.00000000          1
H         7.36840732      11.01645223      10.34628419         0.00000000       0.00000000       0.00000000          1
H        10.48708535      12.04026080       3.21962900         0.00000000       0.00000000       0.00000000          1
H         5.31885065      14.37511257       4.47307996         0.00000000       0.00000000       0.00000000          1
H         9.36288050       9.12578074       8.76051120         0.00000000       0.00000000       0.00000000          1
6
pbc=[F, F, F] list_num_par=6 frozen=false iter=249 energy=-0.09442064 Lattice="15.00000000 0.00000000 0.00000000 0.00000000 15.00000000 0.00000000 0.00000000 0.00000000 15.00000000" energy_frozen_part=0.00000000 Properties=species:S:1:pos:R:3:velocities:R:3:Z:I:1
H         9.00870347       7.92266211       0.28207319         0.00000000       0.00000000       0.00000000          1
H         3.86871944       3.89131805      13.88982367         0.00000000       0.00000000       0.00000000          1
H        11.27315216      14.41396923       8.53514853         0.00000000       0.00000000       0.00000000          1
H         3.06148565       6.65460077      12.47927549         0.00000000       0.00000000       0.00000000          1
H         6.54118600      13.56123018       8.38176418         0.00000000       0.00000000       0.00000000          1
H         6.53583378       9.08211155      10.60726711         0.00000000       0.00000000       0.00000000          1
6
pbc=[F, F, F] list_num_par=6 frozen=false iter=259 energy=-0.09848068 Lattice="15.00000000 0.00000000 0.00000000 0.00000000 15.00000000 0.00000000 0.00000000 0.00000000 15.00000000" energy_frozen_part=0.00000000 Properties=species:S:1:pos:R:3:velocities:R:3:Z:I:1
H        14.37032637       1.83222026      11.79159705         0.00000000       0.00000000       0.00000000          1
H         1.85249113      14.67562969       9.48145697         0.00000000       0.00000000       0.00000000          1
H         9.62355948      10.26358600       7.63432578         0.00000000       0.00000000       0.00000000          1
H         2.89614861       5.22647380       0.80280202         0.00000000       0.00000000       0.00000000          1
H        13.05103168       0.95000919       9.38935371         0.00000000       0.00000000       0.00000000          1
H         5.29561177       9.07314230      14.17562206         0.00000000       0.00000000       0.00000000          1
6
pbc=[F, F, F] list_num_par=6 frozen=false iter=269 energy=-0.10189930 Lattice="15.00000000 0.00000000 0.00000000 0.00000000 15.00000000 0.00000000 0.00000000 0.00000000 15.00000000" energy_frozen_part=0.00000000 Properties=species:S:1:pos:R:3:velocities:R:3:Z:I:1
H         2.29486645       1.36401532       2.20704443         0.00000000       0.00000000       0.00000000          1
H         3.44518021       8.81003183       3.00940325         0.00000000       0.00000000       0.00000000          1
H         4.23632313       0.39034048       3.86957805         0.00000000       0.00000000       0.00000000          1
H         3.36709638      13.85702921       1.33789386         0.00000000       0.00000000       0.00000000          1
H         8.90270211      14.05805614      10.88871147         0.00000000       0.00000000       0.00000000          1
H        13.91798205       4.22682558       7.70622996         0.00000000       0.00000000       0.00000000          1
6
pbc=[F, F, F] list_num_par=6 frozen=false iter=279 energy=-0.10318789 Lattice="15.00000000 0.00000000 0.00000000 0.00000000 15.00000000 0.00000000 0.00000000 0.00000000 15.00000000" energy_frozen_part=0.00000000 Properties=species:S:1:pos:R:3:velocities:R:3:Z:I:1
H         7.43701773       2.39098524       2.95542979         0.00000000       0.00000000       0.00000000          1
H         7.15595745       3.05787494       8.87247122         0.00000000       0.00000000       0.00000000          1
H         5.63592577      11.23989695       6.78586254         0.00000000       0.00000000       0.00000000          1
H         1.51447345       6.65815886       3.12094575         0.00000000       0.00000000       0.00000000          1
H         4.27771972      13.68100377       7.40027661         0.00000000       0.00000000       0.00000000          1
H        10.47952141       2.32171826      14.84306777         0.00000000       0.00000000       0.00000000          1
6
pbc=[F, F, F] list_num_par=6 frozen=false iter=289 energy=-0.10507290 Lattice="15.00000000 0.00000000 0.00000000 0.00000000 15.00000000 0.00000000 0.00000000 0.00000000 15.00000000" energy_frozen_part=0.00000000 Properties=species:S:1:pos:R:3:velocities:R:3:Z:I:1
H         2.27585336       3.86106275       9.11333659         0.00000000       0.00000000       0.00000000          1
H         4.41641106       6.78458918       3.10542754         0.00000000       0.00000000       0.00000000          1
H        10.44906539       2.97847075       0.99576732         0.00000000       0.00000000       0.00000000          1
H        11.75464206      10.51198879      10.81943166         0.00000000       0.00000000       0.00000000          1
H         2.18425440       1.44611294       7.67794063         0.00000000       0.00000000       0.00000000          1
H         7.06958886      11.32585389       7.59119001         0.00000000       0.00000000       0.00000000          1
6
pbc=[F, F, F] list_num_par=6 frozen=false iter=299 energy=-0.10756783 Lattice="15.00000000 0.00000000 0.00000000 0.00000000 15.00000000 0.00000000 0.00000000 0.00000000 15.00000000" energy_frozen_part=0.00000000 Properties=species:S:1:pos:R:3:velocities:R:3:Z:I:1
H        13.65782922       5.86166262       2.68440511         0.00000000       0.00000000       0.00000000          1
H         9.31477571       8.22457999       2.20551835         0.00000000       0.00000000       0.00000000          1
H         6.83203399       7.02890576      10.43283177         0.00000000       0.00000000       0.00000000          1
H        11.87958456      11.68591700       0.53829843         0.00000000       0.00000000       0.00000000          1
H         3.71911382       7.56480599       3.53041091         0.00000000       0.00000000       0.00000000          1
H         6.83060481       5.04266211       8.12257254         0.00000000       0.00000000       0.00000000          1
6
pbc=[F, F, F] list_num_par=6 frozen=false iter=309 energy=-0.10925150 Lattice="15.00000000 0.00000000 0.00000000 0.00000000 15.00000000 0.00000000 0.00000000 0.00000000 15.00000000" energy_frozen_part=0.00000000 Properties=species:S:1:pos:R:3:velocities:R:3:Z:I:1
H        14.23230809       5.81201137       8.94942862         0.00000000       0.00000000       0.00000000          1
H        13.90162974       9.88091234       0.16553697         0.00000000       0.00000000       0.00000000          1