6
pbc=[F, F, F] list_num_par=6 frozen=false iter=20000 energy=-1.26974174 Lattice="15.00000000 0.00000000 0.00000000 0.00000000 15.00000000 0.00000000 0.00000000 0.00000000 15.00000000" energy_frozen_part=0.00000000 Properties=species:S:1:pos:R:3:velocities:R:3:Z:I:1
H         3.70559338       3.56110000       9.07381819         0.00000000       0.00000000       0.00000000          1
H         4.38987622       0.91021549       8.51806746         0.00000000       0.00000000       0.00000000          1
H         1.76766490       0.40536836       7.69746114         0.00000000       0.00000000       0.00000000          1
H         1.08338030       3.05626036       8.25319829         0.00000000       0.00000000       0.00000000          1
H         3.21622992       2.49422596       6.53874621         0.00000000       0.00000000       0.00000000          1
H         2.25702265       1.47224767      10.23253070         0.00000000       0.00000000       0.00000000          1
6
pbc=[F, F, F] list_num_par=6 frozen=false iter=20000 energy=-1.26974174 Lattice="15.00000000 0.00000000 0.00000000 0.00000000 15.00000000 0.00000000 0.00000000 0.00000000 15.00000000" energy_frozen_part=0.00000000 Properties=species:S:1:pos:R:3:velocities:R:3:Z:I:1
H         2.22967693       9.02330946       4.35353993         0.00000000       0.00000000       0.00000000          1
H         4.93265533       9.09223993       7.23411413         0.00000000       0.00000000       0.00000000          1
H         4.14177471       7.22601100       5.31161964         0.00000000       0.00000000       0.00000000          1
H         3.02057681      10.88953651       6.27602848         0.00000000       0.00000000       0.00000000          1
H         2.25401231       8.31911951       7.05682964         0.00000000       0.00000000       0.00000000          1
H         4.90832723       9.79641913       4.53081438         0.00000000       0.00000000       0.00000000          1
6
pbc=[F, F, F] list_num_par=6 frozen=false iter=20000 energy=-1.26974174 Lattice="15.00000000 0.00000000 0.00000000 0.00000000 15.00000000 0.00000000 0.00000000 0.00000000 15.00000000" energy_frozen_part=0.00000000 Properties=species:S:1:pos:R:3:velocities:R:3:Z:I:1
H         3.70502828       3.56093341       9.07347929         0.00000000       0.00000000       0.00000000          1
H         4.38956983       0.91008259       8.51792348         0.00000000       0.00000000       0.00000000          1
H         1.76730237       0.40481334       7.69773423         0.00000000       0.00000000       0.00000000          1
H         1.08275997       3.05567684       8.25329888         0.00000000       0.00000000       0.00000000          1
H         3.21543333       2.49373789       6.53859363         0.00000000       0.00000000       0.00000000          1
H         2.25689414       1.47202020      10.23262423         0.00000000       0.00000000       0.00000000          1
6
pbc=[F, F, F] list_num_par=6 frozen=false iter=20000 energy=-1.26974174 Lattice="15.00000000 0.00000000 0.00000000 0.00000000 15.00000000 0.00000000 0.00000000 0.00000000 15.00000000" energy_frozen_part=0.00000000 Properties=species:S:1:pos:R:3:velocities:R:3:Z:I:1
H         2.22943240       9.02327748       4.35374295         0.00000000       0.00000000       0.00000000          1
H         4.93249343       9.09236515       7.23423669         0.00000000       0.00000000       0.00000000          1
H         4.14161094       7.22605669       5.31181322         0.00000000       0.00000000       0.00000000          1
H         3.02031615      10.88957227       6.27616829         0.00000000       0.00000000       0.00000000          1
H         2.25386624       8.31915098       7.05705268         0.00000000       0.00000000       0.00000000          1
H         4.90806196       9.79647464       4.53092456         0.00000000       0.00000000       0.00000000          1
6
pbc=[F, F, F] list_num_par=6 frozen=false iter=20000 energy=-1.26974174 Lattice="15.00000000 0.00000000 0.00000000 0.00000000 15.00000000 0.00000000 0.00000000 0.00000000 15.00000000" energy_frozen_part=0.00000000 Properties=species:S:1:pos:R:3:velocities:R:3:Z:I:1
H         3.70514560       3.56082808       9.07394550         0.00000000       0.00000000       0.00000000          1
H         4.38959571       0.90997773       8.51822825         0.00000000       0.00000000       0.00000000          1
H         1.76746818       0.40502805       7.69741180         0.00000000       0.00000000       0.00000000          1
H         1.08301589       3.05587124       8.25314247         0.00000000       0.00000000       0.00000000          1
H         3.21601909       2.49396490       6.53883346         0.00000000       0.00000000       0.00000000          1
H         2.25659608       1.47188591      10.23253152         0.00000000       0.00000000       0.00000000          1
6
pbc=[F, F, F] list_num_par=6 frozen=false iter=20000 energy=-1.26974174 Lattice="15.00000000 0.00000000 0.00000000 0.00000000 15.00000000 0.00000000 0.00000000 0.00000000 15.00000000" energy_frozen_part=0.00000000 Properties=species:S:1:pos:R:3:velocities:R:3:Z:I:1
H         2.22961780       9.02334403       4.35352155         0.00000000       0.00000000       0.00000000          1
H         4.93255684       9.09227927       7.23412991         0.00000000       0.00000000       0.00000000          1
H         4.14173258       7.22606634       5.31159636         0.00000000       0.00000000       0.00000000          1
H         3.02044357      10.88955632       6.27605419         0.00000000       0.00000000       0.00000000          1
H         2.25393637       8.31911034       7.05680804         0.00000000       0.00000000       0.00000000          1
H         4.90825258       9.79650725       4.53084997         0.00000000       0.00000000       0.00000000          1
6
pbc=[F, F, F] list_num_par=6 frozen=false iter=20000 energy=-1.26974174 Lattice="15.00000000 0.00000000 0.00000000 0.00000000 15.00000000 0.00000000 0.00000000 0.00000000 15.00000000" energy_frozen_part=0.00000000 Properties=species:S:1:pos:R:3:velocities:R:3:Z:I:1
H         3.70560500       3.56102606       9.07387883         0.00000000       0.00000000       0.00000000          1
H         4.38976912       0.91010454       8.51814126         0.00000000       0.00000000       0.00000000          1
H         1.76754535       0.40538682       7.69748470         0.00000000       0.00000000       0.00000000          1
H         1.08337799       3.05630042       8.25322920         0.00000000       0.00000000       0.00000000          1
H         3.21622503       2.49418282       6.53880535         0.00000000       0.00000000       0.00000000          1
H         2.25692443       1.47223873      10.23256997         0.00000000       0.00000000       0.00000000          1
6
pbc=[F, F, F] list_num_par=6 frozen=false iter=20000 energy=-1.26974174 Lattice="15.00000000 0.00000000 0.00000000 0.00000000 15.00000000 0.00000000 0.00000000 0.00000000 15.00000000" energy_frozen_part=0.00000000 Properties=species:S:1:pos:R:3:velocities:R:3:Z:I:1
H         2.22962058       9.02334244       4.35355261         0.00000000       0.00000000       0.00000000          1
H         4.93260341       9.09227710       7.23412745         0.00000000       0.00000000       0.00000000          1
H         4.14168617       7.22603053       5.31166949         0.00000000       0.00000000       0.00000000          1
H         3.02054345      10.88958767       6.27600746         0.00000000       0.00000000       0.00000000          1
H         2.25394673       8.31920673       7.05686825         0.00000000       0.00000000       0.00000000          1
H         4.90828028       9.79642001       4.53081477         0.00000000       0.00000000       0.00000000          1
6
pbc=[F, F, F] list_num_par=6 frozen=false iter=20000 energy=-1.26974174 Lattice="15.00000000 0.00000000 0.00000000 0.00000000 15.00000000 0.00000000 0.00000000 0.00000000 15.00000000" energy_frozen_part=0.00000000 Properties=species:S:1:pos:R:3:velocities:R:3:Z:I:1
H         3.13728386       3.36519362       8.84993313         0.00000000       0.00000000       0.00000000          1
H         3.92091723       0.80930293       8.03902108         0.00000000       0.00000000       0.00000000          1
H         1.23968872       0.05144539       7.83665727         0.00000000       0.00000000       0.00000000          1
H         0.45605778       2.60734703       8.64757169         0.00000000       0.00000000       0.00000000          1
H         2.16385015       2.29879760       6.45838069         0.00000000       0.00000000       0.00000000          1
H         2.21312147       1.11784628      10.22820383         0.00000000       0.00000000       0.00000000          1
6
pbc=[F, F, F] list_num_par=6 frozen=false iter=20000 energy=-1.26974174 Lattice="15.00000000 0.00000000 0.00000000 0.00000000 15.00000000 0.00000000 0.00000000 0.00000000 15.00000000" energy_frozen_part=0.00000000 Properties=species:S:1:pos:R:3:velocities:R:3:Z:I:1
H         2.22961122       9.02334475       4.35356714         0.00000000       0.00000000       0.00000000          1
H         4.93260881       9.09228075       7.23411917         0.00000000       0.00000000       0.00000000          1
H         4.14167137       7.22603599       5.31166447         0.00000000       0.00000000       0.00000000          1
H         3.02054198      10.88959694       6.27601976         0.00000000       0.00000000       0.00000000          1
H         2.25395152       8.31921674       7.05687727         0.00000000       0.00000000       0.00000000          1
H         4.90827195       9.79642402       4.53081104         0.00000000       0.00000000       0.00000000          1
6
pbc=[F, F, F] list_num_par=6 frozen=false iter=20000 energy=-1.26974174 Lattice="15.00000000 0.00000000 0.00000000 0.00000000 15.00000000 0.00000000 0.00000000 0.00000000 15.00000000" energy_frozen_part=0.00000000 Properties=species:S:1:pos:R:3:velocities:R:3:Z:I:1
H         3.13732115       3.36517969       8.84994462         0.00000000       0.00000000       0.00000000          1
H         3.92091589       0.80925705       8.03905101         0.00000000       0.00000000       0.00000000          1
H         1.23968175       0.05144888       7.83668589         0.00000000       0.00000000       0.00000000          1
H         0.45608078       2.60736208       8.64756644         0.00000000       0.00000000       0.00000000          1
H         2.16388373       2.29877258       6.45839698         0.00000000       0.00000000       0.00000000          1
H         2.21312005       1.11785287      10.22822546         0.00000000       0.00000000       0.00000000          1
6
pbc=[F, F, F] list_num_par=6 frozen=false iter=20000 energy=-1.26974174 Lattice="15.00000000 0.00000000 0.00000000 0.00000000 15.00000000 0.00000000 0.00000000 0.00000000 15.00000000" energy_frozen_part=0.00000000 Properties=species:S:1:pos:R:3:velocities:R:3:Z:I:1
H         3.70560486       3.56105328       9.07388576         0.00000000       0.00000000       0.00000000          1
H         4.38980500       0.91014257       8.51817240         0.00000000       0.00000000       0.00000000          1
H         1.76759133       0.40538944       7.69750842         0.00000000       0.00000000       0.00000000          1
H         1.08339651       3.05629998       8.25321643         0.00000000       0.00000000       0.00000000          1
H         3.21625717       2.49417997       6.53880252         0.00000000       0.00000000       0.00000000          1
H         2.25694234       1.47226241      10.23258756         0.00000000       0.00000000       0.00000000          1
6
pbc=[F, F, F] list_num_par=6 frozen=false iter=20000 energy=-1.26974174 Lattice="15.00000000 0.00000000 0.00000000 0.00000000 15.00000000 0.00000000 0.00000000 0.00000000 15.00000000" energy_frozen_part=0.00000000 Properties=species:S:1:pos:R:3:velocities:R:3:Z:I:1
H         3.70515754       3.56088083       9.07385278         0.00000000       0.00000000       0.00000000          1
H         4.38970936       0.91005411       8.51818316         0.00000000       0.00000000       0.00000000          1
H         1.76745085       0.40481722       7.69794202         0.00000000       0.00000000       0.00000000          1
H         1.08290628       3.05564878       8.25361205         0.00000000       0.00000000       0.00000000          1
H         3.21559329       2.49378957       6.53890270         0.00000000       0.00000000       0.00000000          1
H         2.25701363       1.47190526      10.23288447         0.00000000       0.00000000       0.00000000          1
6
pbc=[F, F, F] list_num_par=6 frozen=false iter=20000 energy=-1.26974174 Lattice="15.00000000 0.00000000 0.00000000 0.00000000 15.00000000 0.00000000 0.00000000 0.00000000 15.00000000" energy_frozen_part=0.00000000 Properties=species:S:1:pos:R:3:velocities:R:3:Z:I:1
H         2.22971634       9.02331479       4.35355617         0.00000000       0.00000000       0.00000000          1
H         4.93268001       9.09240380       7.23414501         0.00000000       0.00000000       0.00000000          1
H         4.14185231       7.22610574       5.31169143         0.00000000       0.00000000       0.00000000          1
H         3.02053549      10.88961389       6.27601203         0.00000000       0.00000000       0.00000000          1
H         2.25405933       8.31919662       7.05686938         0.00000000       0.00000000       0.00000000          1
H         4.90832887       9.79652676       4.53083185         0.00000000       0.00000000       0.00000000          1
6
pbc=[F, F, F] list_num_par=6 frozen=false iter=20000 energy=-1.26974174 Lattice="15.00000000 0.00000000 0.00000000 0.00000000 15.00000000 0.00000000 0.00000000 0.00000000 15.00000000" energy_frozen_part=0.00000000 Properties=species:S:1:pos:R:3:velocities:R:3:Z:I:1
H         3.70556290       3.56109256       9.07377822         0.00000000       0.00000000       0.00000000          1
H         4.38980638       0.91017926       8.51812972         0.00000000       0.00000000       0.00000000          1
H         1.76756630       0.40533875       7.69757858         0.00000000       0.00000000       0.00000000          1
H         1.08332947       3.05624964       8.25323640         0.00000000       0.00000000       0.00000000          1
H         3.21614775       2.49412836       6.53875697         0.00000000       0.00000000       0.00000000          1
H         2.25699176       1.47229929      10.23260572         0.00000000       0.00000000       0.00000000          1
6
pbc=[F, F, F] list_num_par=6 frozen=false iter=20000 energy=-1.26974174 Lattice="15.00000000 0.00000000 0.00000000 0.00000000 15.00000000 0.00000000 0.00000000 0.00000000 15.00000000" energy_frozen_part=0.00000000 Properties=species:S:1:pos:R:3:velocities:R:3:Z:I:1
H         2.22961833       9.02333047       4.35351588         0.00000000       0.00000000       0.00000000          1
H         4.93256336       9.09226939       7.23412930         0.00000000       0.00000000       0.00000000          1
H         4.14173032       7.22605860       5.31159256         0.00000000       0.00000000       0.00000000          1
H         3.02043815      10.88954341       6.27605570         0.00000000       0.00000000       0.00000000          1
H         2.25393599       8.31910536       7.05680260         0.00000000       0.00000000       0.00000000          1
H         4.90824337       9.79650402       4.53085053         0.00000000       0.00000000       0.00000000          1
6
pbc=[F, F, F] list_num_par=6 frozen=false iter=20000 energy=-1.26974174 Lattice="15.00000000 0.00000000 0.00000000 0.00000000 15.00000000 0.00000000 0.00000000 0.00000000 15.00000000" energy_frozen_part=0.00000000 Properties=species:S:1:pos:R:3:velocities:R:3:Z:I:1
H         2.22966539       9.02335292       4.35353813         0.00000000       0.00000000       0.00000000          1
H         4.93263373       9.09230019       7.23413015         0.00000000       0.00000000       0.00000000          1
H         4.14172651       7.22605164       5.31166687         0.00000000       0.00000000       0.00000000          1
H         3.02057110      10.88960429       6.27599734         0.00000000       0.00000000       0.00000000          1
H         2.25397434       8.31921829       7.05684241         0.00000000       0.00000000       0.00000000          1
H         4.90831979       9.79644413       4.53081941         0.00000000       0.00000000       0.00000000          1
6
pbc=[F, F, F] list_num_par=6 frozen=false iter=20000 energy=-1.26974174 Lattice="15.00000000 0.00000000 0.00000000 0.00000000 15.00000000 0.00000000 0.00000000 0.00000000 15.00000000" energy_frozen_part=0.00000000 Properties=species:S:1:pos:R:3:velocities:R:3:Z:I:1
H         2.22941837       9.02327923       4.35375436         0.00000000       0.00000000       0.00000000          1
H         4.93248922       9.09235912       7.23423876         0.00000000       0.00000000       0.00000000          1
H         4.14158220       7.22605707       5.31182542         0.00000000       0.00000000       0.00000000          1
H         3.02033025      10.88958261       6.27615632         0.00000000       0.00000000       0.00000000          1
H         2.25385237       8.31917631       7.05706826         0.00000000       0.00000000       0.00000000          1
H         4.90805189       9.79645994       4.53092474         0.00000000       0.00000000       0.00000000          1
6
pbc=[F, F, F] list_num_par=6 frozen=false iter=20000 energy=-1.26974174 Lattice="15.00000000 0.00000000 0.00000000 0.00000000 15.00000000 0.00000000 0.00000000 0.00000000 15.00000000" energy_frozen_part=0.00000000 Properties=species:S:1:pos:R:3:velocities:R:3:Z:I:1
H         3.13729160       3.36521019       8.84992930         0.00000000       0.00000000       0.00000000          1
H         3.92092294       0.80931234       8.03901543         0.00000000       0.00000000       0.00000000          1
H         1.23969072       0.05145358       7.83665949         0.00000000       0.00000000       0.00000000          1
H         0.45606540       2.60735266       8.64757102         0.00000000       0.00000000       0.00000000          1
H         2.16385089       2.29879885       6.45838906         0.00000000       0.00000000       0.00000000          1
H         2.21313962       1.11786214      10.22820583         0.00000000       0.00000000       0.00000000          1
6
pbc=[F, F, F] list_num_par=6 frozen=false iter=20000 energy=-1.26974174 Lattice="15.00000000 0.00000000 0.00000000 0.00000000 15.00000000 0.00000000 0.00000000 0.00000000 15.00000000" energy_frozen_part=0.00000000 Properties=species:S:1:pos:R:3:velocities:R:3:Z:I:1
H         2.22942232       9.02324881       4.35375745         0.00000000       0.00000000       0.00000000          1
H         4.93249219       9.09236653       7.23424292         0.00000000       0.00000000       0.00000000          1
H         4.14161050       7.22605489       5.31182841         0.00000000       0.00000000       0.00000000          1
H         3.02030641      10.88955970       6.27617508         0.00000000       0.00000000       0.00000000          1
H         2.25386911       8.31914128       7.05706901         0.00000000       0.00000000       0.00000000          1
H         4.90805119       9.79646937       4.53092507         0.00000000       0.00000000       0.00000000          1
6
pbc=[F, F, F] list_num_par=6 frozen=false iter=20000 energy=-1.26974174 Lattice="15.00000000 0.00000000 0.00000000 0.00000000 15.00000000 0.00000000 0.00000000 0.00000000 15.00000000" energy_frozen_part=0.00000000 Properties=species:S:1:pos:R:3:velocities:R:3:Z:I:1
H         2.22783816       9.02663886       4.35621975         0.00000000       0.00000000       0.00000000          1
H         4.93479499       9.09196125       7.23313617         0.00000000       0.00000000       0.00000000          1
H         4.14085764       7.22792402       5.30977590         0.00000000       0.00000000       0.00000000          1
H         3.02178220      10.89067224       6.27958593         0.00000000       0.00000000       0.00000000          1
H         2.25574322       8.31959936       7.05873441         0.00000000       0.00000000       0.00000000          1
H         4.90688908       9.79899866       4.53061656         0.00000000       0.00000000       0.00000000          1
6
pbc=[F, F, F] list_num_par=6 frozen=false iter=20000 energy=-1.26974174 Lattice="15.00000000 0.00000000 0.00000000 0.00000000 15.00000000 0.00000000 0.00000000 0.00000000 15.00000000" energy_frozen_part=0.00000000 Properties=species:S:1:pos:R:3:velocities:R:3:Z:I:1
H         3.70511530       3.56086107       9.07392010         0.00000000       0.00000000       0.00000000          1
H         4.38959479       0.91002271       8.51822267         0.00000000       0.00000000       0.00000000          1
H         1.76746307       0.40501067       7.69744162         0.00000000       0.00000000       0.00000000          1
H         1.08298426       3.05585787       8.25313699         0.00000000       0.00000000       0.00000000          1
H         3.21597870       2.49395820       6.53881651         0.00000000       0.00000000       0.00000000          1
H         2.25660010       1.47190974      10.23254526         0.00000000       0.00000000       0.00000000          1
6
pbc=[F, F, F] list_num_par=6 frozen=false iter=20000 energy=-1.26974174 Lattice="15.00000000 0.00000000 0.00000000 0.00000000 15.00000000 0.00000000 0.00000000 0.00000000 15.00000000" energy_frozen_part=0.00000000 Properties=species:S:1:pos:R:3:velocities:R:3:Z:I:1
H         2.22781684       9.02663220       4.35619755         0.00000000       0.00000000       0.00000000          1
H         4.93478933       9.09190875       7.23310790         0.00000000       0.00000000       0.00000000          1
H         4.14084279       7.22789960       5.30973107         0.00000000       0.00000000       0.00000000          1
H         3.02176699      10.89063610       6.27958241         0.00000000       0.00000000       0.00000000          1
H         2.25573359       8.31955829       7.05870941         0.00000000       0.00000000       0.00000000          1
H         4.90687511       9.79897028       4.53059898         0.00000000       0.00000000       0.00000000          1
6
pbc=[F, F, F] list_num_par=6 frozen=false iter=20000 energy=-1.26974174 Lattice="15.00000000 0.00000000 0.00000000 0.00000000 15.00000000 0.00000000 0.00000000 0.00000000 15.00000000" energy_frozen_part=0.00000000 Properties=species:S:1:pos:R:3:velocities:R:3:Z:I:1
H         3.70511471       3.56085527       9.07391610         0.00000000       0.00000000       0.00000000          1
H         4.38958826       0.91000694       8.51822447         0.00000000       0.00000000       0.00000000          1
H         1.76745505       0.40500536       7.69743881         0.00000000       0.00000000       0.00000000          1
H         1.08299220       3.05585620       8.25312766         0.00000000       0.00000000       0.00000000          1
H         3.21597915       2.49393968       6.53881211         0.00000000       0.00000000       0.00000000          1
H         2.25659333       1.47192270      10.23254063         0.00000000       0.00000000       0.00000000          1
6
pbc=[F, F, F] list_num_par=6 frozen=false iter=20000 energy=-1.26974174 Lattice="15.00000000 0.00000000 0.00000000 0.00000000 15.00000000 0.00000000 0.00000000 0.00000000 15.00000000" energy_frozen_part=0.00000000 Properties=species:S:1:pos:R:3:velocities:R:3:Z:I:1
H         3.70553711       3.56109727       9.07385609         0.00000000       0.00000000       0.00000000          1
H         4.38982564       0.91019739       8.51818139         0.00000000       0.00000000       0.00000000          1
H         1.76760933       0.40534130       7.69755922         0.00000000       0.00000000       0.00000000          1
H         1.08333048       3.05623487       8.25322891         0.00000000       0.00000000       0.00000000          1
H         3.21619612       2.49416766       6.53880388         0.00000000       0.00000000       0.00000000          1
H         2.25696245       1.47227170      10.23261119         0.00000000       0.00000000       0.00000000          1
6
pbc=[F, F, F] list_num_par=6 frozen=false iter=20000 energy=-1.26974174 Lattice="15.00000000 0.00000000 0.00000000 0.00000000 15.00000000 0.00000000 0.00000000 0.00000000 15.00000000" energy_frozen_part=0.00000000 Properties=species:S:1:pos:R:3:velocities:R:3:Z:I:1
H         2.22971439       9.02331234       4.35356038         0.00000000       0.00000000       0.00000000          1
H         4.93267601       9.09242174       7.23414610         0.00000000       0.00000000       0.00000000          1
H         4.14187927       7.22612117       5.31169241         0.00000000       0.00000000       0.00000000          1
H         3.02051768      10.88962265       6.27601417         0.00000000       0.00000000       0.00000000          1
H         2.25406013       8.31918895       7.05686904         0.00000000       0.00000000       0.00000000          1
H         4.90832476       9.79654380       4.53083116         0.00000000       0.00000000       0.00000000          1
6
pbc=[F, F, F] list_num_par=6 frozen=false iter=20000 energy=-1.26974174 Lattice="15.00000000 0.00000000 0.00000000 0.00000000 15.00000000 0.00000000 0.00000000 0.00000000 15.00000000" energy_frozen_part=0.00000000 Properties=species:S:1:pos:R:3:velocities:R:3:Z:I:1
H         3.70554530       3.56109537       9.07385677         0.00000000       0.00000000       0.00000000          1
H         4.38983573       0.91019599       8.51817314         0.00000000       0.00000000       0.00000000          1
H         1.76761787       0.40533325       7.69756076         0.00000000       0.00000000       0.00000000          1
H         1.08333014       3.05622808       8.25323672         0.00000000       0.00000000       0.00000000          1
H         3.21618896       2.49415954       6.53880415         0.00000000       0.00000000       0.00000000          1
H         2.25697219       1.47226578      10.23260671         0.00000000       0.00000000       0.00000000          1
6
pbc=[F, F, F] list_num_par=6 frozen=false iter=20000 energy=-1.26974174 Lattice="15.00000000 0.00000000 0.00000000 0.00000000 15.00000000 0.00000000 0.00000000 0.00000000 15.00000000" energy_frozen_part=0.00000000 Properties=species:S:1:pos:R:3:velocities:R:3:Z:I:1
H         3.70512188       3.56084824       9.07393450         0.00000000       0.00000000       0.00000000          1
H         4.38959386       0.90999908       8.51823700         0.00000000       0.00000000       0.00000000          1
H         1.76746237       0.40502144       7.69742986         0.00000000       0.00000000       0.00000000          1
H         1.08299650       3.05586055       8.25312375         0.00000000       0.00000000       0.00000000          1
H         3.21600696       2.49394859       6.53882153         0.00000000       0.00000000       0.00000000          1
H         2.25658382       1.47191398      10.23254024         0.00000000       0.00000000       0.00000000          1
6
pbc=[F, F, F] list_num_par=6 frozen=false iter=20000 energy=-1.26974174 Lattice="15.00000000 0.00000000 0.00000000 0.00000000 15.00000000 0.00000000 0.00000000 0.00000000 15.00000000" energy_frozen_part=0.00000000 Properties=species:S:1:pos:R:3:velocities:R:3:Z:I:1
H         3.70513007       3.56084473       9.07394232         0.00000000       0.00000000       0.00000000          1
H         4.38959451       0.90999027       8.51824470         0.00000000       0.00000000       0.00000000          1
H         1.76746466       0.40501050       7.69742504         0.00000000       0.00000000       0.00000000          1
H         1.08299954       3.05586043       8.25312228         0.00000000       0.00000000       0.00000000          1
H         3.21600999       2.49394614       6.53883572         0.00000000       0.00000000       0.00000000          1
H         2.25658097       1.47190614      10.23253198         0.00000000       0.00000000       0.00000000          1
6
pbc=[F, F, F] list_num_par=6 frozen=false iter=20000 energy=-1.26974174 Lattice="15.00000000 0.00000000 0.00000000 0.00000000 15.00000000 0.00000000 0.00000000 0.00000000 15.00000000" energy_frozen_part=0.00000000 Properties=species:S:1:pos:R:3:velocities:R:3:Z:I:1
H         3.13730189       3.36520077       8.84992427         0.00000000       0.00000000       0.00000000          1
H         3.92093650       0.80929726       8.03903486         0.00000000       0.00000000       0.00000000          1
H         1.23971019       0.05143874       7.83665493         0.00000000       0.00000000       0.00000000          1
H         0.45607180       2.60734147       8.64755353         0.00000000       0.00000000       0.00000000          1
H         2.16387608       2.29878613       6.45838545         0.00000000       0.00000000       0.00000000          1
H         2.21313245       1.11784943      10.22820258         0.00000000       0.00000000       0.00000000          1
6
pbc=[F, F, F] list_num_par=6 frozen=false iter=20000 energy=-1.26974174 Lattice="15.00000000 0.00000000 0.00000000 0.00000000 15.00000000 0.00000000 0.00000000 0.00000000 15.00000000" energy_frozen_part=0.00000000 Properties=species:S:1:pos:R:3:velocities:R:3:Z:I:1
H         2.22960929       9.02335279       4.35356116         0.00000000       0.00000000       0.00000000          1
H         4.93261639       9.09227862       7.23411579         0.00000000       0.00000000       0.00000000          1