6
pbc=[F, F, F] list_num_par=6 energy=78.57337819 iter=9 frozen=false Lattice="15.00000000 0.00000000 0.00000000 0.00000000 15.00000000 0.00000000 0.00000000 0.00000000 15.00000000" energy_frozen_part=0.00000000 Properties=species:S:1:pos:R:3:velocities:R:3:Z:I:1
H        12.73801038      13.51433664      10.81627666         0.00000000       0.00000000       0.00000000          1
H         9.97398886       6.27959455      10.51161571         0.00000000       0.00000000       0.00000000          1
H         8.33619941       2.98309912       5.87907219         0.00000000       0.00000000       0.00000000          1
H        12.03549418      14.24979793      14.30984485         0.00000000       0.00000000       0.00000000          1
H        12.15212965       4.42401865      13.92417278         0.00000000       0.00000000       0.00000000          1
H         8.38875061       6.05977162      10.51287532         0.00000000       0.00000000       0.00000000          1
6
pbc=[F, F, F] list_num_par=6 energy=3.58275266 iter=19 frozen=false Lattice="15.00000000 0.00000000 0.00000000 0.00000000 15.00000000 0.00000000 0.00000000 0.00000000 15.00000000" energy_frozen_part=0.00000000 Properties=species:S:1:pos:R:3:velocities:R:3:Z:I:1
H         7.11627006       6.11543669       3.29695913         0.00000000       0.00000000       0.00000000          1
H        13.24971095      14.37327418       0.62524988         0.00000000       0.00000000       0.00000000          1
H         6.98105427       8.16732422      11.71408874         0.00000000       0.00000000       0.00000000          1
H         9.01328783       4.45187338       3.24391291         0.00000000       0.00000000       0.00000000          1
H         8.23683168       7.08062166      12.87228706         0.00000000       0.00000000       0.00000000          1
H         3.15581584      10.18633294       3.18470258         0.00000000       0.00000000       0.00000000          1
6
pbc=[F, F, F] list_num_par=6 energy=0.44789407 iter=29 frozen=false Lattice="15.00000000 0.00000000 0.00000000 0.00000000 15.00000000 0.00000000 0.00000000 0.00000000 15.00000000" energy_frozen_part=0.00000000 Properties=species:S:1:pos:R:3:velocities:R:3:Z:I:1
H         7.07624352       2.28427374       0.34218638         0.00000000       0.00000000       0.00000000          1
H        12.13839298       1.53725712       4.08202794         0.00000000       0.00000000       0.00000000          1
H         1.87866648      10.38017528       3.38895705         0.00000000       0.00000000       0.00000000          1
H         7.75456335      12.53140813       2.70092885         0.00000000       0.00000000       0.00000000          1
H         9.41421671      10.97880155       2.43549984         0.00000000       0.00000000       0.00000000          1
H         0.18912324       8.24165715       6.16739173         0.00000000       0.00000000       0.00000000          1
6
pbc=[F, F, F] list_num_par=6 energy=-0.00513631 iter=39 frozen=false Lattice="15.00000000 0.00000000 0.00000000 0.00000000 15.00000000 0.00000000 0.00000000 0.00000000 15.00000000" energy_frozen_part=0.00000000 Properties=species:S:1:pos:R:3:velocities:R:3:Z:I:1
H         5.20627051       6.23885131      14.30959704         0.00000000       0.00000000       0.00000000          1
H        10.40964475       7.87727084      10.31589392         0.00000000       0.00000000       0.00000000          1
H         7.85171643       3.88429099       0.97312612         0.00000000       0.00000000       0.00000000          1
H        14.20119114      14.02937566      14.55481871         0.00000000       0.00000000       0.00000000          1
H        12.49787710      14.21873029       3.46420733         0.00000000       0.00000000       0.00000000          1
H         7.00723693       1.18826111      14.78021669         0.00000000       0.00000000       0.00000000          1
6
pbc=[F, F, F] list_num_par=6 energy=-0.00901906 iter=49 frozen=false Lattice="15.00000000 0.00000000 0.00000000 0.00000000 15.00000000 0.00000000 0.00000000 0.00000000 15.00000000" energy_frozen_part=0.00000000 Properties=species:S:1:pos:R:3:velocities:R:3:Z:I:1
H         4.59156578       8.90346303       0.45660148         0.00000000       0.00000000       0.00000000          1
H        12.41476390       3.54921992       6.70518296         0.00000000       0.00000000       0.00000000          1
H        12.81541985       8.33741264       0.32682083         0.00000000       0.00000000       0.00000000          1
H         1.29186498       9.96722883       3.92170856         0.00000000       0.00000000       0.00000000          1
H         0.97475872      14.89617918      11.99689566         0.00000000       0.00000000       0.00000000          1
H         8.65977174       9.18476661       7.25750939         0.00000000       0.00000000       0.00000000          1
6
pbc=[F, F, F] list_num_par=6 energy=-0.01303236 iter=59 frozen=false Lattice="15.00000000 0.00000000 0.00000000 0.00000000 15.00000000 0.00000000 0.00000000 0.00000000 15.00000000" energy_frozen_part=0.00000000 Properties=species:S:1:pos:R:3:velocities:R:3:Z:I:1
H        11.23510916       2.21016016       4.81792436         0.00000000       0.00000000       0.00000000          1
H         7.05500898      14.21360385       4.85951844         0.00000000       0.00000000       0.00000000          1
H         2.45412901       7.41732845       8.14509783         0.00000000       0.00000000       0.00000000          1
H        12.37186857      14.31738641      11.14586631         0.00000000       0.00000000       0.00000000          1
H        11.11025584      10.18925632      12.79140056         0.00000000       0.00000000       0.00000000          1
H         8.48508007       7.65405825       3.75727813         0.00000000       0.00000000       0.00000000          1
6
pbc=[F, F, F] list_num_par=6 energy=-0.01741142 iter=69 frozen=false Lattice="15.00000000 0.00000000 0.00000000 0.00000000 15.00000000 0.00000000 0.00000000 0.00000000 15.00000000" energy_frozen_part=0.00000000 Properties=species:S:1:pos:R:3:velocities:R:3:Z:I:1
H         0.11317734       8.19241202      11.84667751         0.00000000       0.00000000       0.00000000          1
H        14.97860947       1.14030940       7.98548456         0.00000000       0.00000000       0.00000000          1
H         5.22368463       2.38933443      10.89234193         0.00000000       0.00000000       0.00000000          1
H        10.39847141       1.39615906       3.53579328         0.00000000       0.00000000       0.00000000          1
H         0.17553970      11.06097912       5.43630278         0.00000000       0.00000000       0.00000000          1
H        12.63270429       4.94435628       5.47210665         0.00000000       0.00000000       0.00000000          1
6
pbc=[F, F, F] list_num_par=6 energy=-0.02285481 iter=79 frozen=false Lattice="15.00000000 0.00000000 0.00000000 0.00000000 15.00000000 0.00000000 0.00000000 0.00000000 15.00000000" energy_frozen_part=0.00000000 Properties=species:S:1:pos:R:3:velocities:R:3:Z:I:1
H         5.58154456      11.81163125       4.82170436         0.00000000       0.00000000       0.00000000          1
H         6.69143871       6.90844615       3.35334585         0.00000000       0.00000000       0.00000000          1
H         2.89955468       3.76488470      10.17227350         0.00000000       0.00000000       0.00000000          1
H         1.29495594      11.08602946       0.77725587         0.00000000       0.00000000       0.00000000          1
H         6.66447611       2.75289405       4.49942580         0.00000000       0.00000000       0.00000000          1
H        14.90195836      12.14189403       9.46334576         0.00000000       0.00000000       0.00000000          1
6
pbc=[F, F, F] list_num_par=6 energy=-0.02782003 iter=89 frozen=false Lattice="15.00000000 0.00000000 0.00000000 0.00000000 15.00000000 0.00000000 0.00000000 0.00000000 15.00000000" energy_frozen_part=0.00000000 Properties=species:S:1:pos:R:3:velocities:R:3:Z:I:1
H         6.60113414       7.56522549       6.22283873         0.00000000       0.00000000       0.00000000          1
H         6.78510179       0.62022811       8.71578745         0.00000000       0.00000000       0.00000000          1
H         7.17894706       7.37972197       2.01540976         0.00000000       0.00000000       0.00000000          1
H         7.06471313      11.08613449      14.77261791         0.00000000       0.00000000       0.00000000          1
H        12.38238824       5.51947385       5.05900640         0.00000000       0.00000000       0.00000000          1
H         2.81088742       8.27199758       9.11537472         0.00000000       0.00000000       0.00000000          1
6
pbc=[F, F, F] list_num_par=6 energy=-0.03539403 iter=99 frozen=false Lattice="15.00000000 0.00000000 0.00000000 0.00000000 15.00000000 0.00000000 0.00000000 0.00000000 15.00000000" energy_frozen_part=0.00000000 Properties=species:S:1:pos:R:3:velocities:R:3:Z:I:1
H         5.40921577       9.57866285       9.97764552         0.00000000       0.00000000       0.00000000          1
H        13.01891189       0.72026072      13.14594853         0.00000000       0.00000000       0.00000000          1
H        10.79677080       8.87282645       6.32684414         0.00000000       0.00000000       0.00000000          1
H         6.44242976      12.97928282      11.21723150         0.00000000       0.00000000       0.00000000          1
H         7.84122206       1.13159539       5.82170674         0.00000000       0.00000000       0.00000000          1
H         1.86938690      11.09639640       5.30414174         0.00000000       0.00000000       0.00000000          1
6
pbc=[F, F, F] list_num_par=6 energy=-0.04126621 iter=109 frozen=false Lattice="15.00000000 0.00000000 0.00000000 0.00000000 15.00000000 0.00000000 0.00000000 0.00000000 15.00000000" energy_frozen_part=0.00000000 Properties=species:S:1:pos:R:3:velocities:R:3:Z:I:1
H        12.79700142       7.31787631       5.76459777         0.00000000       0.00000000       0.00000000          1
H         9.27485192      11.01919269      13.24473462         0.00000000       0.00000000       0.00000000          1
H         3.90201687       4.01684007       4.67989825         0.00000000       0.00000000       0.00000000          1
H         7.69704082       5.08692034       5.02703200         0.00000000       0.00000000       0.00000000          1
H         0.99645208      10.13107148       5.30446883         0.00000000       0.00000000       0.00000000          1
H         3.07602660      12.91311068       7.98205387         0.00000000       0.00000000       0.00000000          1
6
pbc=[F, F, F] list_num_par=6 energy=-0.04467488 iter=119 frozen=false Lattice="15.00000000 0.00000000 0.00000000 0.00000000 15.00000000 0.00000000 0.00000000 0.00000000 15.00000000" energy_frozen_part=0.00000000 Properties=species:S:1:pos:R:3:velocities:R:3:Z:I:1
H        10.71830080      11.62085575       8.74305449         0.00000000       0.00000000       0.00000000          1
H        13.00093714       4.61745259       4.59481085         0.00000000       0.00000000       0.00000000          1
H        11.15855676      13.62310442       2.71573627         0.00000000       0.00000000       0.00000000          1
H         8.34887372      14.78817454       5.49293410         0.00000000       0.00000000       0.00000000          1
H         9.81717785       5.83907662       2.14847314         0.00000000       0.00000000       0.00000000          1
H         3.34974730      10.59012207       4.30914414         0.00000000       0.00000000       0.00000000          1
6
pbc=[F, F, F] list_num_par=6 energy=-0.05176728 iter=129 frozen=false Lattice="15.00000000 0.00000000 0.00000000 0.00000000 15.00000000 0.00000000 0.00000000 0.00000000 15.00000000" energy_frozen_part=0.00000000 Properties=species:S:1:pos:R:3:velocities:R:3:Z:I:1
H        12.16091222       4.86665759       6.59457996         0.00000000       0.00000000       0.00000000          1
H        12.13658975       6.82023263       0.50834769         0.00000000       0.00000000       0.00000000          1
H        12.32997048      10.08381719      10.57565597         0.00000000       0.00000000       0.00000000          1
H         6.50384636       4.64277686       4.82733645         0.00000000       0.00000000       0.00000000          1
H        13.14875082       6.75998394      11.56562824         0.00000000       0.00000000       0.00000000          1
H         6.29787301      12.96443671       9.69063409         0.00000000       0.00000000       0.00000000          1
6
pbc=[F, F, F] list_num_par=6 energy=-0.05542831 iter=139 frozen=false Lattice="15.00000000 0.00000000 0.00000000 0.00000000 15.00000000 0.00000000 0.00000000 0.00000000 15.00000000" energy_frozen_part=0.00000000 Properties=species:S:1:pos:R:3:velocities:R:3:Z:I:1
H        10.17737773       0.92333910      11.48050659         0.00000000       0.00000000       0.00000000          1
H         9.11778831      14.19177140      14.79067003         0.00000000       0.00000000       0.00000000          1
H        10.80929822      13.27897420       4.99711056         0.00000000       0.00000000       0.00000000          1
H         0.15176425       6.89881897       6.21162857         0.00000000       0.00000000       0.00000000          1
H         0.93936967       5.69402478       0.89886723         0.00000000       0.00000000       0.00000000          1
H         8.21464538      12.87365033      11.76467293         0.00000000       0.00000000       0.00000000          1
6
pbc=[F, F, F] list_num_par=6 energy=-0.06253601 iter=149 frozen=false Lattice="15.00000000 0.00000000 0.00000000 0.00000000 15.00000000 0.00000000 0.00000000 0.00000000 15.00000000" energy_frozen_part=0.00000000 Properties=species:S:1:pos:R:3:velocities:R:3:Z:I:1
H         4.83706797       7.20996641       6.09223304         0.00000000       0.00000000       0.00000000          1
H         7.20174575       3.83363969       9.63940525         0.00000000       0.00000000       0.00000000          1
H         6.77279597       5.59657594       1.39347224         0.00000000       0.00000000       0.00000000          1
H         7.23747624      12.16724713      13.85621895         0.00000000       0.00000000       0.00000000          1
H        11.38099583       5.02001935       5.14422968         0.00000000       0.00000000       0.00000000          1
H         2.51341851       7.73248389       8.61189334         0.00000000       0.00000000       0.00000000          1
6
pbc=[F, F, F] list_num_par=6 energy=-0.06566304 iter=159 frozen=false Lattice="15.00000000 0.00000000 0.00000000 0.00000000 15.00000000 0.00000000 0.00000000 0.00000000 15.00000000" energy_frozen_part=0.00000000 Properties=species:S:1:pos:R:3:velocities:R:3:Z:I:1
H         9.86130821       2.99447894       2.93251465         0.00000000       0.00000000       0.00000000          1
H        13.49354926      14.23521862       8.82793450         0.00000000       0.00000000       0.00000000          1
H         1.83944267      13.15455863       2.27065084         0.00000000       0.00000000       0.00000000          1
H         0.60318329       8.01135293       8.12927775         0.00000000       0.00000000       0.00000000          1
H        11.95247239       0.60029204       2.07361432         0.00000000       0.00000000       0.00000000          1
H         7.08030228      13.74976674       0.82538675         0.00000000       0.00000000       0.00000000          1
6
pbc=[F, F, F] list_num_par=6 energy=-0.06977939 iter=169 frozen=false Lattice="15.00000000 0.00000000 0.00000000 0.00000000 15.00000000 0.00000000 0.00000000 0.00000000 15.00000000" energy_frozen_part=0.00000000 Properties=species:S:1:pos:R:3:velocities:R:3:Z:I:1
H         2.59291598       6.46607397      10.16741619         0.00000000       0.00000000       0.00000000          1
H         9.76355808       8.23291454       9.32946223         0.00000000       0.00000000       0.00000000          1
H         7.98136961       1.72907241      10.52704285         0.00000000       0.00000000       0.00000000          1
H         2.33632626       6.60712653      13.55353972         0.00000000       0.00000000       0.00000000          1
H        11.07610035       9.72898235      13.83240863         0.00000000       0.00000000       0.00000000          1
H         5.36424558      10.96241614       8.04245264         0.00000000       0.00000000       0.00000000          1
6
pbc=[F, F, F] list_num_par=6 energy=-0.07667302 iter=179 frozen=false Lattice="15.00000000 0.00000000 0.00000000 0.00000000 15.00000000 0.00000000 0.00000000 0.00000000 15.00000000" energy_frozen_part=0.00000000 Properties=species:S:1:pos:R:3:velocities:R:3:Z:I:1
H        11.13760460       0.01960196      11.24081280         0.00000000       0.00000000       0.00000000          1
H        11.99369086       2.45023800      11.10321567         0.00000000       0.00000000       0.00000000          1
H         4.67024405       8.95709321       6.02047261         0.00000000       0.00000000       0.00000000          1
H        10.82923715       5.68230244      13.71342917         0.00000000       0.00000000       0.00000000          1
H        13.09107775       7.46447390       5.37040335         0.00000000       0.00000000       0.00000000          1
H        10.52605242       3.21990515       2.35395567         0.00000000       0.00000000       0.00000000          1
6
pbc=[F, F, F] list_num_par=6 energy=-0.08033445 iter=189 frozen=false Lattice="15.00000000 0.00000000 0.00000000 0.00000000 15.00000000 0.00000000 0.00000000 0.00000000 15.00000000" energy_frozen_part=0.00000000 Properties=species:S:1:pos:R:3:velocities:R:3:Z:I:1
H         0.53763969       2.98344177       8.40966981         0.00000000       0.00000000       0.00000000          1
H        11.19480424       3.33135773       3.37839443         0.00000000       0.00000000       0.00000000          1
H         1.24269000       1.37414635       2.11856835         0.00000000       0.00000000       0.00000000          1
H        13.15217291       8.22712056      10.89867196         0.00000000       0.00000000       0.00000000          1
H         1.73536330      10.12775721       8.83613492         0.00000000       0.00000000       0.00000000          1
H        12.41451886       8.64534303      13.89263907         0.00000000       0.00000000       0.00000000          1
6
pbc=[F, F, F] list_num_par=6 energy=-0.08254763 iter=199 frozen=false Lattice="15.00000000 0.00000000 0.00000000 0.00000000 15.00000000 0.00000000 0.00000000 0.00000000 15.00000000" energy_frozen_part=0.00000000 Properties=species:S:1:pos:R:3:velocities:R:3:Z:I:1
H         0.42595748       1.21852338      10.51068850         0.00000000       0.00000000       0.00000000          1
H         8.14125431      14.80765332       1.73276465         0.00000000       0.00000000       0.00000000          1
H         5.44772478       3.25796896       2.38606481         0.00000000       0.00000000       0.00000000          1
H         1.15333860       3.94478965       8.06339176         0.00000000       0.00000000       0.00000000          1
H         1.81592146      10.44323918      14.57501373         0.00000000       0.00000000       0.00000000          1
H         4.22306980       0.24640753       3.60889952         0.00000000       0.00000000       0.00000000          1
6
pbc=[F, F, F] list_num_par=6 energy=-0.08509777 iter=209 frozen=false Lattice="15.00000000 0.00000000 0.00000000 0.00000000 15.00000000 0.00000000 0.00000000 0.00000000 15.00000000" energy_frozen_part=0.00000000 Properties=species:S:1:pos:R:3:velocities:R:3:Z:I:1
H        13.63615719       2.35541533       0.94420425         0.00000000       0.00000000       0.00000000          1
H         6.96115717       9.47140574       4.49036245         0.00000000       0.00000000       0.00000000          1
H         6.06313067       2.83696839       8.45961316         0.00000000       0.00000000       0.00000000          1
H         1.48262597       0.01241635       2.64077828         0.00000000       0.00000000       0.00000000          1
H         1.35409300      13.96665175      10.09124980         0.00000000       0.00000000       0.00000000          1
H         5.67687178       8.86018431       7.21550007         0.00000000       0.00000000       0.00000000          1
6
pbc=[F, F, F] list_num_par=6 energy=-0.08758957 iter=219 frozen=false Lattice="15.00000000 0.00000000 0.00000000 0.00000000 15.00000000 0.00000000 0.00000000 0.00000000 15.00000000" energy_frozen_part=0.00000000 Properties=species:S:1:pos:R:3:velocities:R:3:Z:I:1
H         5.65688738       8.53075923      10.50124072         0.00000000       0.00000000       0.00000000          1
H         8.95415523       8.74396993      13.50495287         0.00000000       0.00000000       0.00000000          1
H         2.50985689      14.90863098      10.01632167         0.00000000       0.00000000       0.00000000          1
H        14.77233661       5.69611043       3.81065178         0.00000000       0.00000000       0.00000000          1
H         4.55868907       6.20148692      10.05707378         0.00000000       0.00000000       0.00000000          1
H        14.88857293       8.30693863      14.81817370         0.00000000       0.00000000       0.00000000          1
6
pbc=[F, F, F] list_num_par=6 energy=-0.09169297 iter=229 frozen=false Lattice="15.00000000 0.00000000 0.00000000 0.00000000 15.00000000 0.00000000 0.00000000 0.00000000 15.00000000" energy_frozen_part=0.00000000 Properties=species:S:1:pos:R:3:velocities:R:3:Z:I:1
H        12.02699483       4.94401367       7.70616079         0.00000000       0.00000000       0.00000000          1
H        12.67073535       3.28544875      10.17119198         0.00000000       0.00000000       0.00000000          1
H         4.14242444       1.69418258       7.92358955         0.00000000       0.00000000       0.00000000          1
H        10.15902946      10.58848223       0.69902684         0.00000000       0.00000000       0.00000000          1
H         3.01772329       2.49892100       3.01140376         0.00000000       0.00000000       0.00000000          1
H         4.82520671      14.68450109       2.94568807         0.00000000       0.00000000       0.00000000          1
6
pbc=[F, F, F] list_num_par=6 energy=-0.09543048 iter=239 frozen=false Lattice="15.00000000 0.00000000 0.00000000 0.00000000 15.00000000 0.00000000 0.00000000 0.00000000 15.00000000" energy_frozen_part=0.00000000 Properties=species:S:1:pos:R:3:velocities:R:3:Z:I:1
H         8.58542413      10.60878795      12.62101034         0.00000000       0.00000000       0.00000000          1
H        14.56301510       4.04400653       3.76738417         0.00000000       0.00000000       0.00000000          1
H         9.30726867      14.69256424       2.56841474         0.00000000       0.00000000       0.00000000          1
H         8.62890586      13.96620072       5.42833663         0.00000000       0.00000000       0.00000000          1
H         9.87568704       4.92150058       2.19652900         0.00000000       0.00000000       0.00000000          1
H         2.72914889      14.98731202       4.92557783         0.00000000       0.00000000       0.00000000          1
6
pbc=[F, F, F] list_num_par=6 energy=-0.09677729 iter=249 frozen=false Lattice="15.00000000 0.00000000 0.00000000 0.00000000 15.00000000 0.00000000 0.00000000 0.00000000 15.00000000" energy_frozen_part=0.00000000 Properties=species:S:1:pos:R:3:velocities:R:3:Z:I:1
H        14.04464459       4.59816348       0.13941677         0.00000000       0.00000000       0.00000000          1
H        10.00200119      12.08193189       2.49381005         0.00000000       0.00000000       0.00000000          1
H         2.70370292       1.71717537       8.90880414         0.00000000       0.00000000       0.00000000          1
H         0.46790259       5.80226329       0.35815454         0.00000000       0.00000000       0.00000000          1
H         2.95558437      13.13148996       6.47561954         0.00000000       0.00000000       0.00000000          1
H         4.16176847      11.59449303       8.62840989         0.00000000       0.00000000       0.00000000          1
6
pbc=[F, F, F] list_num_par=6 energy=-0.09900578 iter=259 frozen=false Lattice="15.00000000 0.00000000 0.00000000 0.00000000 15.00000000 0.00000000 0.00000000 0.00000000 15.00000000" energy_frozen_part=0.00000000 Properties=species:S:1:pos:R:3:velocities:R:3:Z:I:1
H         0.14406594      11.87247936       2.11433752         0.00000000       0.00000000       0.00000000          1
H         5.54731122      12.99736096       8.63267131         0.00000000       0.00000000       0.00000000          1
H        14.34510365       2.70116132      10.73073612         0.00000000       0.00000000       0.00000000          1
H        10.11622983       1.02764883      11.82426724         0.00000000       0.00000000       0.00000000          1
H         7.42222636      13.19791628      10.51282266         0.00000000       0.00000000       0.00000000          1
H         0.01845652      14.37246323       9.02171896         0.00000000       0.00000000       0.00000000          1
6
pbc=[F, F, F] list_num_par=6 energy=-0.10139660 iter=269 frozen=false Lattice="15.00000000 0.00000000 0.00000000 0.00000000 15.00000000 0.00000000 0.00000000 0.00000000 15.00000000" energy_frozen_part=0.00000000 Properties=species:S:1:pos:R:3:velocities:R:3:Z:I:1
H         2.80877467       0.06542982       9.55233431         0.00000000       0.00000000       0.00000000          1
H         8.60079309       9.18838116       9.88134851         0.00000000       0.00000000       0.00000000          1
H         1.80560724       2.52564597       1.19891209         0.00000000       0.00000000       0.00000000          1
H        12.01498460       7.15663512       1.67444295         0.00000000       0.00000000       0.00000000          1
H        13.98310108       6.11588677      10.89935257         0.00000000       0.00000000       0.00000000          1
H         7.66768125      11.01623496       7.91573061         0.00000000       0.00000000       0.00000000          1
6
pbc=[F, F, F] list_num_par=6 energy=-0.10469584 iter=279 frozen=false Lattice="15.00000000 0.00000000 0.00000000 0.00000000 15.00000000 0.00000000 0.00000000 0.00000000 15.00000000" energy_frozen_part=0.00000000 Properties=species:S:1:pos:R:3:velocities:R:3:Z:I:1
H         9.71825104       8.09958408       5.91575407         0.00000000       0.00000000       0.00000000          1
H         1.30354016       1.45106460      14.89779388         0.00000000       0.00000000       0.00000000          1
H        11.92615277       3.09194863       9.15150484         0.00000000       0.00000000       0.00000000          1
H         7.41010639       4.09324698      13.33118370         0.00000000       0.00000000       0.00000000          1
H         5.98324769       4.60314949      10.11577906         0.00000000       0.00000000       0.00000000          1
H        12.61618631       8.65059524       4.26548495         0.00000000       0.00000000       0.00000000          1
6
pbc=[F, F, F] list_num_par=6 energy=-0.10609207 iter=289 frozen=false Lattice="15.00000000 0.00000000 0.00000000 0.00000000 15.00000000 0.00000000 0.00000000 0.00000000 15.00000000" energy_frozen_part=0.00000000 Properties=species:S:1:pos:R:3:velocities:R:3:Z:I:1
H         2.14273654       9.88189073      13.25512659         0.00000000       0.00000000       0.00000000          1
H         2.35451693      13.65042648       1.80944050         0.00000000       0.00000000       0.00000000          1
H         8.11012479       2.71839370       4.72132964         0.00000000       0.00000000       0.00000000          1
H         6.49221239      13.49706949       3.77560027         0.00000000       0.00000000       0.00000000          1
H        13.38877809       3.99223721       0.62664541         0.00000000       0.00000000       0.00000000          1
H        11.11403472       3.16318204       3.65357707         0.00000000       0.00000000       0.00000000          1
6
pbc=[F, F, F] list_num_par=6 energy=-0.10743868 iter=299 frozen=false Lattice="15.00000000 0.00000000 0.00000000 0.00000000 15.00000000 0.00000000 0.00000000 0.00000000 15.00000000" energy_frozen_part=0.00000000 Properties=species:S:1:pos:R:3:velocities:R:3:Z:I:1
H         4.70445902       6.56886420       9.13267338         0.00000000       0.00000000       0.00000000          1
H         2.71183470       2.18324932       6.15034801         0.00000000       0.00000000       0.00000000          1
H         4.26579798       7.87801707       2.69777885         0.00000000       0.00000000       0.00000000          1
H         5.47761900      12.36137427      13.78321129         0.00000000       0.00000000       0.00000000          1
H         9.81042068       0.26100463       8.26121901         0.00000000       0.00000000       0.00000000          1
H         5.51714592       7.82570421       6.32183631         0.00000000       0.00000000       0.00000000          1
6
pbc=[F, F, F] list_num_par=6 energy=-0.10864889 iter=309 frozen=false Lattice="15.00000000 0.00000000 0.00000000 0.00000000 15.00000000 0.00000000 0.00000000 0.00000000 15.00000000" energy_frozen_part=0.00000000 Properties=species:S:1:pos:R:3:velocities:R:3:Z:I:1
H         4.03402265       7.23930276       6.48810864         0.00000000       0.00000000       0.00000000          1
H         7.83430831       4.31117723       9.16191868         0.00000000       0.00000000       0.00000000          1