6
pbc=[F, F, F] list_num_par=6 energy=1123.66231144 iter=9 frozen=false Lattice="15.00000000 0.00000000 0.00000000 0.00000000 15.00000000 0.00000000 0.00000000 0.00000000 15.00000000" energy_frozen_part=0.00000000 Properties=species:S:1:pos:R:3:velocities:R:3:Z:I:1
H        10.35028876      11.27667023      11.96268242         0.00000000       0.00000000       0.00000000          1
H         0.14676097      11.69568056       4.07349270         0.00000000       0.00000000       0.00000000          1
H        10.59617678      10.01721234      11.85340784         0.00000000       0.00000000       0.00000000          1
H        10.08110315       3.18455016       6.56470645         0.00000000       0.00000000       0.00000000          1
H         2.74400230       7.76789943       9.90818734         0.00000000       0.00000000       0.00000000          1
H         4.20598136       9.27265249      14.26030250         0.00000000       0.00000000       0.00000000          1
6
pbc=[F, F, F] list_num_par=6 energy=10.41025858 iter=19 frozen=false Lattice="15.00000000 0.00000000 0.00000000 0.00000000 15.00000000 0.00000000 0.00000000 0.00000000 15.00000000" energy_frozen_part=0.00000000 Properties=species:S:1:pos:R:3:velocities:R:3:Z:I:1
H         0.51220413       5.20060178       3.27968424         0.00000000       0.00000000       0.00000000          1
H        10.13269231      11.04807738      14.49110466         0.00000000       0.00000000       0.00000000          1
H        11.90461717      12.86916869      10.56083647         0.00000000       0.00000000       0.00000000          1
H        13.99603968      14.04231657       5.76949791         0.00000000       0.00000000       0.00000000          1
H         3.88830699       0.77234315      10.53351086         0.00000000       0.00000000       0.00000000          1
H         5.59371410       1.20984720       9.89038063         0.00000000       0.00000000       0.00000000          1
6
pbc=[F, F, F] list_num_par=6 energy=-0.00056638 iter=29 frozen=false Lattice="15.00000000 0.00000000 0.00000000 0.00000000 15.00000000 0.00000000 0.00000000 0.00000000 15.00000000" energy_frozen_part=0.00000000 Properties=species:S:1:pos:R:3:velocities:R:3:Z:I:1
H         0.52046949       1.74823381      13.14723948         0.00000000       0.00000000       0.00000000          1
H        11.29439529       0.11720807       7.19364515         0.00000000       0.00000000       0.00000000          1
H         0.79884359      10.22399942      14.27446412         0.00000000       0.00000000       0.00000000          1
H        13.26310994       7.59538391      11.07504464         0.00000000       0.00000000       0.00000000          1
H         2.34439539       2.38133600       2.22995500         0.00000000       0.00000000       0.00000000          1
H         5.15521804       9.25423137       5.15377991         0.00000000       0.00000000       0.00000000          1
6
pbc=[F, F, F] list_num_par=6 energy=-0.00436126 iter=39 frozen=false Lattice="15.00000000 0.00000000 0.00000000 0.00000000 15.00000000 0.00000000 0.00000000 0.00000000 15.00000000" energy_frozen_part=0.00000000 Properties=species:S:1:pos:R:3:velocities:R:3:Z:I:1
H        10.79354429       8.28770467       8.24294874         0.00000000       0.00000000       0.00000000          1
H         1.07418545       3.16272750       6.22074519         0.00000000       0.00000000       0.00000000          1
H         7.43268121       8.28359416      14.24616534         0.00000000       0.00000000       0.00000000          1
H        13.76809954       1.90175288      10.16960567         0.00000000       0.00000000       0.00000000          1
H         2.75232892      12.95168817      12.44564042         0.00000000       0.00000000       0.00000000          1
H         6.77178930       6.88418207       3.70290840         0.00000000       0.00000000       0.00000000          1
6
pbc=[F, F, F] list_num_par=6 energy=-0.00739148 iter=49 frozen=false Lattice="15.00000000 0.00000000 0.00000000 0.00000000 15.00000000 0.00000000 0.00000000 0.00000000 15.00000000" energy_frozen_part=0.00000000 Properties=species:S:1:pos:R:3:velocities:R:3:Z:I:1
H        14.96729438       5.04365197       5.92182266         0.00000000       0.00000000       0.00000000          1
H         9.77358167       4.16459043       4.99404986         0.00000000       0.00000000       0.00000000          1
H         1.49200967       8.58534537      11.13265602         0.00000000       0.00000000       0.00000000          1
H        13.95234136      11.17923753      10.53341201         0.00000000       0.00000000       0.00000000          1
H         1.34334822       2.71272847       6.05484051         0.00000000       0.00000000       0.00000000          1
H        10.26482847       0.23047538       9.43199414         0.00000000       0.00000000       0.00000000          1
6
pbc=[F, F, F] list_num_par=6 energy=-0.00944962 iter=59 frozen=false Lattice="15.00000000 0.00000000 0.00000000 0.00000000 15.00000000 0.00000000 0.00000000 0.00000000 15.00000000" energy_frozen_part=0.00000000 Properties=species:S:1:pos:R:3:velocities:R:3:Z:I:1
H         0.72255537       2.69052644       9.97941127         0.00000000       0.00000000       0.00000000          1
H        13.31716611      11.18736853       1.41763348         0.00000000       0.00000000       0.00000000          1
H         6.37175207      14.16492571       9.39116249         0.00000000       0.00000000       0.00000000          1
H         1.81536345       1.28166627       3.25479435         0.00000000       0.00000000       0.00000000          1
H        13.59602932       7.51128740       4.68288151         0.00000000       0.00000000       0.00000000          1
H         9.86957640       9.13925132      10.73365149         0.00000000       0.00000000       0.00000000          1
6
pbc=[F, F, F] list_num_par=6 energy=-0.01636389 iter=69 frozen=false Lattice="15.00000000 0.00000000 0.00000000 0.00000000 15.00000000 0.00000000 0.00000000 0.00000000 15.00000000" energy_frozen_part=0.00000000 Properties=species:S:1:pos:R:3:velocities:R:3:Z:I:1
H         8.75109113       4.42412098       9.53437544         0.00000000       0.00000000       0.00000000          1
H        14.76330604       1.38974004       5.21631195         0.00000000       0.00000000       0.00000000          1
H        12.34994934       2.68641172       1.46642483         0.00000000       0.00000000       0.00000000          1
H         2.03599449      10.00369451       0.72947899         0.00000000       0.00000000       0.00000000          1
H         3.27179964       9.76643777       9.69956921         0.00000000       0.00000000       0.00000000          1
H        11.11401970       7.56945432       1.35225023         0.00000000       0.00000000       0.00000000          1
6
pbc=[F, F, F] list_num_par=6 energy=-0.02014179 iter=79 frozen=false Lattice="15.00000000 0.00000000 0.00000000 0.00000000 15.00000000 0.00000000 0.00000000 0.00000000 15.00000000" energy_frozen_part=0.00000000 Properties=species:S:1:pos:R:3:velocities:R:3:Z:I:1
H         7.99905570       6.93878358       0.81667554         0.00000000       0.00000000       0.00000000          1
H         5.90966441       3.28358380      10.07218452         0.00000000       0.00000000       0.00000000          1
H         6.75309717      11.53524397       4.40979228         0.00000000       0.00000000       0.00000000          1
H        11.05148804       1.99848708       9.11043754         0.00000000       0.00000000       0.00000000          1
H         4.76809832       5.41137677       3.97836332         0.00000000       0.00000000       0.00000000          1
H        10.29687384       1.75792039      14.77947227         0.00000000       0.00000000       0.00000000          1
6
pbc=[F, F, F] list_num_par=6 energy=-0.02371678 iter=89 frozen=false Lattice="15.00000000 0.00000000 0.00000000 0.00000000 15.00000000 0.00000000 0.00000000 0.00000000 15.00000000" energy_frozen_part=0.00000000 Properties=species:S:1:pos:R:3:velocities:R:3:Z:I:1
H         1.80544034       0.65530510       5.13795092         0.00000000       0.00000000       0.00000000          1
H         7.32535132      10.96604616       2.32708426         0.00000000       0.00000000       0.00000000          1
H         4.34779530       2.65230024       0.06002383         0.00000000       0.00000000       0.00000000          1
H         6.19449702       0.27548878       3.71056170         0.00000000       0.00000000       0.00000000          1
H         3.46470054       5.02508007       8.32172039         0.00000000       0.00000000       0.00000000          1
H         1.26203587      11.34815684      14.95568389         0.00000000       0.00000000       0.00000000          1
6
pbc=[F, F, F] list_num_par=6 energy=-0.02697471 iter=99 frozen=false Lattice="15.00000000 0.00000000 0.00000000 0.00000000 15.00000000 0.00000000 0.00000000 0.00000000 15.00000000" energy_frozen_part=0.00000000 Properties=species:S:1:pos:R:3:velocities:R:3:Z:I:1
H        13.80607693       8.44640595       4.66183159         0.00000000       0.00000000       0.00000000          1
H        13.08205593       4.19135107       7.71120934         0.00000000       0.00000000       0.00000000          1
H         6.36281652       9.65169366      14.95718846         0.00000000       0.00000000       0.00000000          1
H        10.59601068      10.86464185       5.62786524         0.00000000       0.00000000       0.00000000          1
H        12.24315029       1.40543315       2.68100065         0.00000000       0.00000000       0.00000000          1
H         8.85003830       2.36180926      13.74578213         0.00000000       0.00000000       0.00000000          1
6
pbc=[F, F, F] list_num_par=6 energy=-0.03057810 iter=109 frozen=false Lattice="15.00000000 0.00000000 0.00000000 0.00000000 15.00000000 0.00000000 0.00000000 0.00000000 15.00000000" energy_frozen_part=0.00000000 Properties=species:S:1:pos:R:3:velocities:R:3:Z:I:1
H        14.95109421      13.99515399       5.76960967         0.00000000       0.00000000       0.00000000          1
H        11.40991473      11.54266658      13.60906608         0.00000000       0.00000000       0.00000000          1
H         0.92390035       2.34933714       3.84827587         0.00000000       0.00000000       0.00000000          1
H         6.86680993       5.91729790       9.50940821         0.00000000       0.00000000       0.00000000          1
H         4.51396979       2.65356085       5.80365181         0.00000000       0.00000000       0.00000000          1
H         4.98376699       0.26144444       0.91905356         0.00000000       0.00000000       0.00000000          1
6
pbc=[F, F, F] list_num_par=6 energy=-0.03245325 iter=119 frozen=false Lattice="15.00000000 0.00000000 0.00000000 0.00000000 15.00000000 0.00000000 0.00000000 0.00000000 15.00000000" energy_frozen_part=0.00000000 Properties=species:S:1:pos:R:3:velocities:R:3:Z:I:1
H         2.14226280      13.15861593       3.81968691         0.00000000       0.00000000       0.00000000          1
H        14.24273205       0.86905249       8.10438309         0.00000000       0.00000000       0.00000000          1
H        10.84959496       8.74178583       5.84545428         0.00000000       0.00000000       0.00000000          1
H         0.11527607      10.78705390       0.25817725         0.00000000       0.00000000       0.00000000          1
H        10.27792678       0.98894462       8.47402862         0.00000000       0.00000000       0.00000000          1
H         5.53523354       3.06889227      12.85310387         0.00000000       0.00000000       0.00000000          1
6
pbc=[F, F, F] list_num_par=6 energy=-0.03614882 iter=129 frozen=false Lattice="15.00000000 0.00000000 0.00000000 0.00000000 15.00000000 0.00000000 0.00000000 0.00000000 15.00000000" energy_frozen_part=0.00000000 Properties=species:S:1:pos:R:3:velocities:R:3:Z:I:1
H        13.35720555      14.03585663       5.88999540         0.00000000       0.00000000       0.00000000          1
H         3.86631766       9.42926478       3.50919434         0.00000000       0.00000000       0.00000000          1
H        11.00858970       2.08675268       4.11929260         0.00000000       0.00000000       0.00000000          1
H         5.00988240       3.81274547      10.86333415         0.00000000       0.00000000       0.00000000          1
H         4.82889253       1.27401230      13.58122247         0.00000000       0.00000000       0.00000000          1
H        11.07458154       1.95516603      11.76152709         0.00000000       0.00000000       0.00000000          1
6
pbc=[F, F, F] list_num_par=6 energy=-0.04099157 iter=139 frozen=false Lattice="15.00000000 0.00000000 0.00000000 0.00000000 15.00000000 0.00000000 0.00000000 0.00000000 15.00000000" energy_frozen_part=0.00000000 Properties=species:S:1:pos:R:3:velocities:R:3:Z:I:1
H         0.53680332       9.32381520       8.90645740         0.00000000       0.00000000       0.00000000          1
H        12.96410447       8.76341250       9.86271353         0.00000000       0.00000000       0.00000000          1
H        13.37020683       9.06044795       3.45580397         0.00000000       0.00000000       0.00000000          1
H         1.08347371       0.77986853       2.69791703         0.00000000       0.00000000       0.00000000          1
H         6.40218109       4.97256828       8.38015291         0.00000000       0.00000000       0.00000000          1
H        10.24926352       8.56449900       7.14086141         0.00000000       0.00000000       0.00000000          1
6
pbc=[F, F, F] list_num_par=6 energy=-0.04628820 iter=149 frozen=false Lattice="15.00000000 0.00000000 0.00000000 0.00000000 15.00000000 0.00000000 0.00000000 0.00000000 15.00000000" energy_frozen_part=0.00000000 Properties=species:S:1:pos:R:3:velocities:R:3:Z:I:1
H         7.04514855      12.99558951       4.61093358         0.00000000       0.00000000       0.00000000          1
H        11.50240603       1.69626041       8.62394271         0.00000000       0.00000000       0.00000000          1
H        11.60223048      13.43661495       6.31143524         0.00000000       0.00000000       0.00000000          1
H         1.38030461      10.79445923       6.32479118         0.00000000       0.00000000       0.00000000          1
H         9.08012442       0.44325091       6.15265844         0.00000000       0.00000000       0.00000000          1
H         6.77485836       8.26107962       9.47121367         0.00000000       0.00000000       0.00000000          1
6
pbc=[F, F, F] list_num_par=6 energy=-0.05258482 iter=159 frozen=false Lattice="15.00000000 0.00000000 0.00000000 0.00000000 15.00000000 0.00000000 0.00000000 0.00000000 15.00000000" energy_frozen_part=0.00000000 Properties=species:S:1:pos:R:3:velocities:R:3:Z:I:1
H         5.21247567       3.63963582      14.94059598         0.00000000       0.00000000       0.00000000          1
H         3.90665706      10.88082338       8.51391984         0.00000000       0.00000000       0.00000000          1
H         6.45470825      14.15885878      13.54362221         0.00000000       0.00000000       0.00000000          1
H         1.18819522      13.38676043       7.19379340         0.00000000       0.00000000       0.00000000          1
H         6.27399053      11.16433025       4.86026239         0.00000000       0.00000000       0.00000000          1
H         8.17643624      13.44060646       1.41202166         0.00000000       0.00000000       0.00000000          1
6
pbc=[F, F, F] list_num_par=6 energy=-0.05749918 iter=169 frozen=false Lattice="15.00000000 0.00000000 0.00000000 0.00000000 15.00000000 0.00000000 0.00000000 0.00000000 15.00000000" energy_frozen_part=0.00000000 Properties=species:S:1:pos:R:3:velocities:R:3:Z:I:1
H         3.21857015      12.20287815       1.47653993         0.00000000       0.00000000       0.00000000          1
H         5.06115265      10.18808047      11.59625538         0.00000000       0.00000000       0.00000000          1
H        11.18156800      13.34631938      13.46919463         0.00000000       0.00000000       0.00000000          1
H        14.67214404       8.63690633       0.86877456         0.00000000       0.00000000       0.00000000          1
H         7.46679081      13.31442284      11.91106713         0.00000000       0.00000000       0.00000000          1
H         1.30380491      12.53936280      10.46828513         0.00000000       0.00000000       0.00000000          1
6
pbc=[F, F, F] list_num_par=6 energy=-0.06392430 iter=179 frozen=false Lattice="15.00000000 0.00000000 0.00000000 0.00000000 15.00000000 0.00000000 0.00000000 0.00000000 15.00000000" energy_frozen_part=0.00000000 Properties=species:S:1:pos:R:3:velocities:R:3:Z:I:1
H        12.44009694       0.93004721       6.52586129         0.00000000       0.00000000       0.00000000          1
H         3.96104876       5.51093963       8.94184097         0.00000000       0.00000000       0.00000000          1
H         7.48102214       3.85051449       3.45655082         0.00000000       0.00000000       0.00000000          1
H        11.98648771      14.28359928      13.33805837         0.00000000       0.00000000       0.00000000          1
H         8.57972334      13.59242369       7.29321201         0.00000000       0.00000000       0.00000000          1
H         5.00510007       4.56245569       3.61644713         0.00000000       0.00000000       0.00000000          1
6
pbc=[F, F, F] list_num_par=6 energy=-0.07104127 iter=189 frozen=false Lattice="15.00000000 0.00000000 0.00000000 0.00000000 15.00000000 0.00000000 0.00000000 0.00000000 15.00000000" energy_frozen_part=0.00000000 Properties=species:S:1:pos:R:3:velocities:R:3:Z:I:1
H         4.09837951       6.42838752      14.45977350         0.00000000       0.00000000       0.00000000          1
H        12.51805740       3.42315520       9.82667920         0.00000000       0.00000000       0.00000000          1
H         4.02521099       7.45578548       6.11456401         0.00000000       0.00000000       0.00000000          1
H         0.04367205      13.21765089       7.96089249         0.00000000       0.00000000       0.00000000          1
H         3.90768914       8.64223950       9.13538776         0.00000000       0.00000000       0.00000000          1
H         6.91964813       1.09098152       1.16087049         0.00000000       0.00000000       0.00000000          1
6
pbc=[F, F, F] list_num_par=6 energy=-0.07836552 iter=199 frozen=false Lattice="15.00000000 0.00000000 0.00000000 0.00000000 15.00000000 0.00000000 0.00000000 0.00000000 15.00000000" energy_frozen_part=0.00000000 Properties=species:S:1:pos:R:3:velocities:R:3:Z:I:1
H         8.32963784       4.13255475       8.13461682         0.00000000       0.00000000       0.00000000          1
H         0.44414507      14.31882603       4.60728717         0.00000000       0.00000000       0.00000000          1
H        10.21548458      11.20174971       4.28400431         0.00000000       0.00000000       0.00000000          1
H        12.46039642       0.39348060       4.79128281         0.00000000       0.00000000       0.00000000          1
H         0.78284617      10.89669028       4.37316253         0.00000000       0.00000000       0.00000000          1
H         8.11020461       7.78699324       9.45250620         0.00000000       0.00000000       0.00000000          1
6
pbc=[F, F, F] list_num_par=6 energy=-0.08264658 iter=209 frozen=false Lattice="15.00000000 0.00000000 0.00000000 0.00000000 15.00000000 0.00000000 0.00000000 0.00000000 15.00000000" energy_frozen_part=0.00000000 Properties=species:S:1:pos:R:3:velocities:R:3:Z:I:1
H        11.63311984       9.44907337       0.86858126         0.00000000       0.00000000       0.00000000          1
H        12.01786947       2.53028701      10.77015906         0.00000000       0.00000000       0.00000000          1
H         7.55446283       6.65779685       8.98723868         0.00000000       0.00000000       0.00000000          1
H         4.74417537       7.79057806       4.68253069         0.00000000       0.00000000       0.00000000          1
H         8.21198185      14.15181189       3.83805573         0.00000000       0.00000000       0.00000000          1
H         8.25270614       8.99639078       8.08300389         0.00000000       0.00000000       0.00000000          1
6
pbc=[F, F, F] list_num_par=6 energy=-0.08672157 iter=219 frozen=false Lattice="15.00000000 0.00000000 0.00000000 0.00000000 15.00000000 0.00000000 0.00000000 0.00000000 15.00000000" energy_frozen_part=0.00000000 Properties=species:S:1:pos:R:3:velocities:R:3:Z:I:1
H         6.52913639      10.50142810      14.77270354         0.00000000       0.00000000       0.00000000          1
H         5.42831341       7.26362477      10.01506318         0.00000000       0.00000000       0.00000000          1
H         7.57221375       8.63108521       0.96635502         0.00000000       0.00000000       0.00000000          1
H         5.64218934       8.17243298       7.04227659         0.00000000       0.00000000       0.00000000          1
H        14.26000195      12.71850214       7.04248577         0.00000000       0.00000000       0.00000000          1
H         3.80747285       4.61612658       2.29919258         0.00000000       0.00000000       0.00000000          1
6
pbc=[F, F, F] list_num_par=6 energy=-0.09043802 iter=229 frozen=false Lattice="15.00000000 0.00000000 0.00000000 0.00000000 15.00000000 0.00000000 0.00000000 0.00000000 15.00000000" energy_frozen_part=0.00000000 Properties=species:S:1:pos:R:3:velocities:R:3:Z:I:1
H         5.92900835       1.22433790      12.12989961         0.00000000       0.00000000       0.00000000          1
H         7.78775883      10.98950674      12.90879915         0.00000000       0.00000000       0.00000000          1
H        10.54213563       3.87878122      11.30752078         0.00000000       0.00000000       0.00000000          1
H         8.64194084      10.95624426       4.49321376         0.00000000       0.00000000       0.00000000          1
H         6.33796630       9.58159674       6.86920856         0.00000000       0.00000000       0.00000000          1
H         9.79502241       8.05586532       7.66524543         0.00000000       0.00000000       0.00000000          1
6
pbc=[F, F, F] list_num_par=6 energy=-0.09411847 iter=239 frozen=false Lattice="15.00000000 0.00000000 0.00000000 0.00000000 15.00000000 0.00000000 0.00000000 0.00000000 15.00000000" energy_frozen_part=0.00000000 Properties=species:S:1:pos:R:3:velocities:R:3:Z:I:1
H        10.69453252       3.12189492       0.79351871         0.00000000       0.00000000       0.00000000          1
H         5.63678796       3.16042364       0.45433082         0.00000000       0.00000000       0.00000000          1
H         2.64255255      11.87738180      14.57214231         0.00000000       0.00000000       0.00000000          1
H        11.60590786      10.64847230      13.68291123         0.00000000       0.00000000       0.00000000          1
H         8.88282508       9.39204229      13.31470098         0.00000000       0.00000000       0.00000000          1
H        12.84277063       2.68887220      12.24092543         0.00000000       0.00000000       0.00000000          1
6
pbc=[F, F, F] list_num_par=6 energy=-0.09701252 iter=249 frozen=false Lattice="15.00000000 0.00000000 0.00000000 0.00000000 15.00000000 0.00000000 0.00000000 0.00000000 15.00000000" energy_frozen_part=0.00000000 Properties=species:S:1:pos:R:3:velocities:R:3:Z:I:1
H         6.07975052       2.11777363      12.58638244         0.00000000       0.00000000       0.00000000          1
H         3.81381755       0.27724648       8.58691073         0.00000000       0.00000000       0.00000000          1
H        14.95655658       2.30808209       2.16992267         0.00000000       0.00000000       0.00000000          1
H         7.12050160       9.57975437      12.16670410         0.00000000       0.00000000       0.00000000          1
H         0.25429119      11.21606580      13.14295348         0.00000000       0.00000000       0.00000000          1
H         8.68680808       1.88084933      12.06650059         0.00000000       0.00000000       0.00000000          1
6
pbc=[F, F, F] list_num_par=6 energy=-0.09891392 iter=259 frozen=false Lattice="15.00000000 0.00000000 0.00000000 0.00000000 15.00000000 0.00000000 0.00000000 0.00000000 15.00000000" energy_frozen_part=0.00000000 Properties=species:S:1:pos:R:3:velocities:R:3:Z:I:1
H        13.15160959       7.41181319      14.02810970         0.00000000       0.00000000       0.00000000          1
H         3.81475859      14.44374387       2.68616890         0.00000000       0.00000000       0.00000000          1
H         6.17606638      14.13256893       0.80029014         0.00000000       0.00000000       0.00000000          1
H        14.15976058       0.58660619       4.64290586         0.00000000       0.00000000       0.00000000          1
H         0.56932813      10.84787006       3.11417822         0.00000000       0.00000000       0.00000000          1
H        10.76567225       3.58662079       7.04365681         0.00000000       0.00000000       0.00000000          1
6
pbc=[F, F, F] list_num_par=6 energy=-0.10002032 iter=269 frozen=false Lattice="15.00000000 0.00000000 0.00000000 0.00000000 15.00000000 0.00000000 0.00000000 0.00000000 15.00000000" energy_frozen_part=0.00000000 Properties=species:S:1:pos:R:3:velocities:R:3:Z:I:1
H         8.32672376      12.03623960       4.77253947         0.00000000       0.00000000       0.00000000          1
H         3.41086543       0.76963999      12.40174145         0.00000000       0.00000000       0.00000000          1
H        10.38154777      13.16844855       6.41057801         0.00000000       0.00000000       0.00000000          1
H        13.88351992       2.23200616       6.38594746         0.00000000       0.00000000       0.00000000          1
H        13.78421003       8.73307100      10.83524064         0.00000000       0.00000000       0.00000000          1
H         1.25699186      14.75364500       2.11772540         0.00000000       0.00000000       0.00000000          1
6
pbc=[F, F, F] list_num_par=6 energy=-0.10358565 iter=279 frozen=false Lattice="15.00000000 0.00000000 0.00000000 0.00000000 15.00000000 0.00000000 0.00000000 0.00000000 15.00000000" energy_frozen_part=0.00000000 Properties=species:S:1:pos:R:3:velocities:R:3:Z:I:1
H         5.91995545       2.32573110      11.08398241         0.00000000       0.00000000       0.00000000          1
H        13.22215683       6.24913088       5.37416702         0.00000000       0.00000000       0.00000000          1
H        13.56732787       1.09422540      12.62627480         0.00000000       0.00000000       0.00000000          1
H         7.99313412      11.41926650       5.34803382         0.00000000       0.00000000       0.00000000          1
H        10.96331697      13.86377608       9.61531211         0.00000000       0.00000000       0.00000000          1
H        11.10241055       8.39541050       5.01463714         0.00000000       0.00000000       0.00000000          1
6
pbc=[F, F, F] list_num_par=6 energy=-0.10573936 iter=289 frozen=false Lattice="15.00000000 0.00000000 0.00000000 0.00000000 15.00000000 0.00000000 0.00000000 0.00000000 15.00000000" energy_frozen_part=0.00000000 Properties=species:S:1:pos:R:3:velocities:R:3:Z:I:1
H         3.69200262      12.67363451       3.87942246         0.00000000       0.00000000       0.00000000          1
H         8.11677283       4.20057275       9.49471273         0.00000000       0.00000000       0.00000000          1
H        10.88151755       8.44953947       5.56784882         0.00000000       0.00000000       0.00000000          1
H        12.01129956       4.28512370      12.78830839         0.00000000       0.00000000       0.00000000          1
H        13.24551379       4.18316383      10.39423411         0.00000000       0.00000000       0.00000000          1
H         0.96727532       6.15950987       3.55123948         0.00000000       0.00000000       0.00000000          1
6
pbc=[F, F, F] list_num_par=6 energy=-0.10871455 iter=299 frozen=false Lattice="15.00000000 0.00000000 0.00000000 0.00000000 15.00000000 0.00000000 0.00000000 0.00000000 15.00000000" energy_frozen_part=0.00000000 Properties=species:S:1:pos:R:3:velocities:R:3:Z:I:1
H         7.53105269       7.83348169       7.70811508         0.00000000       0.00000000       0.00000000          1
H         6.23677330      12.42701941       8.18318382         0.00000000       0.00000000       0.00000000          1
H         4.07812908       0.66191257       2.50615304         0.00000000       0.00000000       0.00000000          1
H        11.64710952      13.25185975       1.18534108         0.00000000       0.00000000       0.00000000          1
H         9.45462248       7.48751638       9.92303268         0.00000000       0.00000000       0.00000000          1
H         3.18518690       5.67003838       9.71258101         0.00000000       0.00000000       0.00000000          1
6
pbc=[F, F, F] list_num_par=6 energy=-0.11196539 iter=309 frozen=false Lattice="15.00000000 0.00000000 0.00000000 0.00000000 15.00000000 0.00000000 0.00000000 0.00000000 15.00000000" energy_frozen_part=0.00000000 Properties=species:S:1:pos:R:3:velocities:R:3:Z:I:1
H         4.67531889      10.01295797       0.75282428         0.00000000       0.00000000       0.00000000          1
H         5.40217003       1.41368756      10.90000948         0.00000000       0.00000000       0.00000000          1