6
pbc=[F, F, F] list_num_par=6 energy=9.26180669 iter=9 frozen=false Lattice="15.00000000 0.00000000 0.00000000 0.00000000 15.00000000 0.00000000 0.00000000 0.00000000 15.00000000" energy_frozen_part=0.00000000 Properties=species:S:1:pos:R:3:velocities:R:3:Z:I:1
H        12.91699451       3.98650527       1.02718572         0.00000000       0.00000000       0.00000000          1
H        14.96199975       1.16647549       7.21903612         0.00000000       0.00000000       0.00000000          1
H         6.22041957      12.19101941       2.43910882         0.00000000       0.00000000       0.00000000          1
H         7.70796944      13.30497523       2.08912369         0.00000000       0.00000000       0.00000000          1
H         3.60509934       0.96013086       2.75332533         0.00000000       0.00000000       0.00000000          1
H         5.15781635       0.64182014      11.65247279         0.00000000       0.00000000       0.00000000          1
6
pbc=[F, F, F] list_num_par=6 energy=0.09015034 iter=19 frozen=false Lattice="15.00000000 0.00000000 0.00000000 0.00000000 15.00000000 0.00000000 0.00000000 0.00000000 15.00000000" energy_frozen_part=0.00000000 Properties=species:S:1:pos:R:3:velocities:R:3:Z:I:1
H        12.31839722       4.61615488       2.66200467         0.00000000       0.00000000       0.00000000          1
H        13.08225939       6.05772623       0.86718791         0.00000000       0.00000000       0.00000000          1
H         3.89005053      10.53042798       4.12185432         0.00000000       0.00000000       0.00000000          1
H        13.98831564       7.53365200      14.42295480         0.00000000       0.00000000       0.00000000          1
H        10.49240896       0.11744543       4.44563063         0.00000000       0.00000000       0.00000000          1
H         3.31360459       3.64251053      13.83584369         0.00000000       0.00000000       0.00000000          1
6
pbc=[F, F, F] list_num_par=6 energy=-0.00370321 iter=29 frozen=false Lattice="15.00000000 0.00000000 0.00000000 0.00000000 15.00000000 0.00000000 0.00000000 0.00000000 15.00000000" energy_frozen_part=0.00000000 Properties=species:S:1:pos:R:3:velocities:R:3:Z:I:1
H         5.17312716       2.10401664       8.35069011         0.00000000       0.00000000       0.00000000          1
H        13.94074800       5.36018309       1.88020613         0.00000000       0.00000000       0.00000000          1
H         8.40612450       1.84036567       2.07844556         0.00000000       0.00000000       0.00000000          1
H         2.60464837      11.79060794      13.97410238         0.00000000       0.00000000       0.00000000          1
H         8.29643191      11.22478799       1.18987859         0.00000000       0.00000000       0.00000000          1
H        11.83608624       5.85822825       8.24587435         0.00000000       0.00000000       0.00000000          1
6
pbc=[F, F, F] list_num_par=6 energy=-0.00631701 iter=39 frozen=false Lattice="15.00000000 0.00000000 0.00000000 0.00000000 15.00000000 0.00000000 0.00000000 0.00000000 15.00000000" energy_frozen_part=0.00000000 Properties=species:S:1:pos:R:3:velocities:R:3:Z:I:1
H        13.38703281       3.35738272      12.17899753         0.00000000       0.00000000       0.00000000          1
H         6.38017914      13.99618621       0.62744072         0.00000000       0.00000000       0.00000000          1
H         8.74013830       1.97188050      13.53316612         0.00000000       0.00000000       0.00000000          1
H         9.52283300       8.99145539       7.22494230         0.00000000       0.00000000       0.00000000          1
H         1.48637658       1.85480462       9.42503781         0.00000000       0.00000000       0.00000000          1
H        13.08925315       0.73806707       2.14257891         0.00000000       0.00000000       0.00000000          1
6
pbc=[F, F, F] list_num_par=6 energy=-0.00879976 iter=49 frozen=false Lattice="15.00000000 0.00000000 0.00000000 0.00000000 15.00000000 0.00000000 0.00000000 0.00000000 15.00000000" energy_frozen_part=0.00000000 Properties=species:S:1:pos:R:3:velocities:R:3:Z:I:1
H         0.12983375       2.40277094       6.27773120         0.00000000       0.00000000       0.00000000          1
H         7.85844012       6.51685122       7.86092420         0.00000000       0.00000000       0.00000000          1
H         3.76632171       3.83120731       1.27051489         0.00000000       0.00000000       0.00000000          1
H         2.43024855       4.38877193      11.70084243         0.00000000       0.00000000       0.00000000          1
H         5.75867677       0.25119789      11.89473713         0.00000000       0.00000000       0.00000000          1
H         0.44942103      13.59228544       3.79974263         0.00000000       0.00000000       0.00000000          1
6
pbc=[F, F, F] list_num_par=6 energy=-0.01064634 iter=59 frozen=false Lattice="15.00000000 0.00000000 0.00000000 0.00000000 15.00000000 0.00000000 0.00000000 0.00000000 15.00000000" energy_frozen_part=0.00000000 Properties=species:S:1:pos:R:3:velocities:R:3:Z:I:1
H         6.58186639      13.55555093       6.72518696         0.00000000       0.00000000       0.00000000          1
H         8.69531826      14.50222216      12.87497513         0.00000000       0.00000000       0.00000000          1
H        11.68756054      14.06636751       5.60570819         0.00000000       0.00000000       0.00000000          1
H         8.71340987       7.52921383       9.63339047         0.00000000       0.00000000       0.00000000          1
H         5.25959231       6.10726156      14.36116918         0.00000000       0.00000000       0.00000000          1
H        11.45962278       5.27367637       4.30651067         0.00000000       0.00000000       0.00000000          1
6
pbc=[F, F, F] list_num_par=6 energy=-0.01505039 iter=69 frozen=false Lattice="15.00000000 0.00000000 0.00000000 0.00000000 15.00000000 0.00000000 0.00000000 0.00000000 15.00000000" energy_frozen_part=0.00000000 Properties=species:S:1:pos:R:3:velocities:R:3:Z:I:1
H        14.46621358       8.07764317       7.99914919         0.00000000       0.00000000       0.00000000          1
H        12.71912720       3.87179031      13.17774056         0.00000000       0.00000000       0.00000000          1
H         3.49743138       9.18726756       4.32728757         0.00000000       0.00000000       0.00000000          1
H         4.48147995      14.98693978      11.39426010         0.00000000       0.00000000       0.00000000          1
H         7.99190412       7.92866881       7.66315300         0.00000000       0.00000000       0.00000000          1
H         5.57769615      13.74014559       6.54108399         0.00000000       0.00000000       0.00000000          1
6
pbc=[F, F, F] list_num_par=6 energy=-0.01877125 iter=79 frozen=false Lattice="15.00000000 0.00000000 0.00000000 0.00000000 15.00000000 0.00000000 0.00000000 0.00000000 15.00000000" energy_frozen_part=0.00000000 Properties=species:S:1:pos:R:3:velocities:R:3:Z:I:1
H         0.04712670      12.90729614      14.32029655         0.00000000       0.00000000       0.00000000          1
H         0.50571321       0.98502299       2.04666733         0.00000000       0.00000000       0.00000000          1
H         0.96742337      10.19043261       5.06424885         0.00000000       0.00000000       0.00000000          1
H        14.58117334       6.83818830       7.31269834         0.00000000       0.00000000       0.00000000          1
H        12.60934172       9.50713640       4.14016516         0.00000000       0.00000000       0.00000000          1
H        10.27425273       4.59382977       6.31316267         0.00000000       0.00000000       0.00000000          1
6
pbc=[F, F, F] list_num_par=6 energy=-0.02326447 iter=89 frozen=false Lattice="15.00000000 0.00000000 0.00000000 0.00000000 15.00000000 0.00000000 0.00000000 0.00000000 15.00000000" energy_frozen_part=0.00000000 Properties=species:S:1:pos:R:3:velocities:R:3:Z:I:1
H        11.44215989      13.66356729       0.77043011         0.00000000       0.00000000       0.00000000          1
H         9.19427886      12.20909280      12.18163130         0.00000000       0.00000000       0.00000000          1
H        12.29434471       3.34507902       0.51982133         0.00000000       0.00000000       0.00000000          1
H        14.58405336       6.02622009       4.93031222         0.00000000       0.00000000       0.00000000          1
H         9.08937238      14.26731119       8.65439120         0.00000000       0.00000000       0.00000000          1
H         1.60875433       9.43918646      10.76065492         0.00000000       0.00000000       0.00000000          1
6
pbc=[F, F, F] list_num_par=6 energy=-0.02709560 iter=99 frozen=false Lattice="15.00000000 0.00000000 0.00000000 0.00000000 15.00000000 0.00000000 0.00000000 0.00000000 15.00000000" energy_frozen_part=0.00000000 Properties=species:S:1:pos:R:3:velocities:R:3:Z:I:1
H        11.88014404       6.97321588       0.04527289         0.00000000       0.00000000       0.00000000          1
H         4.91188839       5.01350243       4.70079439         0.00000000       0.00000000       0.00000000          1
H         1.17806839      11.39723646      10.17066928         0.00000000       0.00000000       0.00000000          1
H         8.11393105       8.51289250       6.85753101         0.00000000       0.00000000       0.00000000          1
H        14.24412171      10.38116432       2.24281033         0.00000000       0.00000000       0.00000000          1
H         9.58908511      12.13291916       3.94883531         0.00000000       0.00000000       0.00000000          1
6
pbc=[F, F, F] list_num_par=6 energy=-0.03166077 iter=109 frozen=false Lattice="15.00000000 0.00000000 0.00000000 0.00000000 15.00000000 0.00000000 0.00000000 0.00000000 15.00000000" energy_frozen_part=0.00000000 Properties=species:S:1:pos:R:3:velocities:R:3:Z:I:1
H        11.12918279      13.35749141       0.89304753         0.00000000       0.00000000       0.00000000          1
H         8.93414373      12.78037828      12.30226346         0.00000000       0.00000000       0.00000000          1
H        12.26367352       3.50243912       0.80426771         0.00000000       0.00000000       0.00000000          1
H        14.70056652       6.51691730       5.25758254         0.00000000       0.00000000       0.00000000          1
H         9.11448289      14.40777323       8.85270579         0.00000000       0.00000000       0.00000000          1
H         1.59148323       9.08330879      10.53922173         0.00000000       0.00000000       0.00000000          1
6
pbc=[F, F, F] list_num_par=6 energy=-0.03780538 iter=119 frozen=false Lattice="15.00000000 0.00000000 0.00000000 0.00000000 15.00000000 0.00000000 0.00000000 0.00000000 15.00000000" energy_frozen_part=0.00000000 Properties=species:S:1:pos:R:3:velocities:R:3:Z:I:1
H         1.63147436      12.19892278       5.23266469         0.00000000       0.00000000       0.00000000          1
H        12.83903978       8.05351886      13.47055724         0.00000000       0.00000000       0.00000000          1
H         2.65297084       7.10134173      14.72830970         0.00000000       0.00000000       0.00000000          1
H         8.80922401       6.67078616       7.13057693         0.00000000       0.00000000       0.00000000          1
H         0.79654922       3.63678162       5.37938684         0.00000000       0.00000000       0.00000000          1
H         1.22106259      10.45410288      14.59966560         0.00000000       0.00000000       0.00000000          1
6
pbc=[F, F, F] list_num_par=6 energy=-0.04608894 iter=129 frozen=false Lattice="15.00000000 0.00000000 0.00000000 0.00000000 15.00000000 0.00000000 0.00000000 0.00000000 15.00000000" energy_frozen_part=0.00000000 Properties=species:S:1:pos:R:3:velocities:R:3:Z:I:1
H         1.02996820       5.20006870      11.28521775         0.00000000       0.00000000       0.00000000          1
H        12.43154495       7.08853374       8.87419561         0.00000000       0.00000000       0.00000000          1
H         7.61367351       9.63937861      13.30079981         0.00000000       0.00000000       0.00000000          1
H         0.80415196       8.78991470      10.48800980         0.00000000       0.00000000       0.00000000          1
H         0.91775279       1.70478686       4.12428360         0.00000000       0.00000000       0.00000000          1
H         4.37067987       2.24809082      12.82584533         0.00000000       0.00000000       0.00000000          1
6
pbc=[F, F, F] list_num_par=6 energy=-0.05496787 iter=139 frozen=false Lattice="15.00000000 0.00000000 0.00000000 0.00000000 15.00000000 0.00000000 0.00000000 0.00000000 15.00000000" energy_frozen_part=0.00000000 Properties=species:S:1:pos:R:3:velocities:R:3:Z:I:1
H        13.42636352       6.86743773      12.59958423         0.00000000       0.00000000       0.00000000          1
H         8.63533344       0.19076825      14.94534007         0.00000000       0.00000000       0.00000000          1
H        11.46176603      11.79738558       6.71735866         0.00000000       0.00000000       0.00000000          1
H         4.97806770      13.39262937       7.11421450         0.00000000       0.00000000       0.00000000          1
H         1.21170887       7.30108881      11.19176031         0.00000000       0.00000000       0.00000000          1
H         3.03124352      11.46680462       9.27809053         0.00000000       0.00000000       0.00000000          1
6
pbc=[F, F, F] list_num_par=6 energy=-0.06092884 iter=149 frozen=false Lattice="15.00000000 0.00000000 0.00000000 0.00000000 15.00000000 0.00000000 0.00000000 0.00000000 15.00000000" energy_frozen_part=0.00000000 Properties=species:S:1:pos:R:3:velocities:R:3:Z:I:1
H         1.72306635      11.44073634      14.43335163         0.00000000       0.00000000       0.00000000          1
H         0.03846144       2.50256434       3.82953953         0.00000000       0.00000000       0.00000000          1
H         1.59996540       8.04922287       4.75817559         0.00000000       0.00000000       0.00000000          1
H        14.94719949       8.14818519       6.96895145         0.00000000       0.00000000       0.00000000          1
H        14.65941684      10.23312003       4.37053795         0.00000000       0.00000000       0.00000000          1
H         8.21747688       4.99215734       7.29556523         0.00000000       0.00000000       0.00000000          1
6
pbc=[F, F, F] list_num_par=6 energy=-0.06602650 iter=159 frozen=false Lattice="15.00000000 0.00000000 0.00000000 0.00000000 15.00000000 0.00000000 0.00000000 0.00000000 15.00000000" energy_frozen_part=0.00000000 Properties=species:S:1:pos:R:3:velocities:R:3:Z:I:1
H        14.73064827       4.94122819       8.76040870         0.00000000       0.00000000       0.00000000          1
H        10.16590297      10.36167939       5.91415552         0.00000000       0.00000000       0.00000000          1
H        10.63000960      13.40201975       0.11139720         0.00000000       0.00000000       0.00000000          1
H        12.45088439       7.70546371       5.36706229         0.00000000       0.00000000       0.00000000          1
H         9.46784497       7.44179089       9.64577944         0.00000000       0.00000000       0.00000000          1
H         1.92961297       8.19169690       0.49837471         0.00000000       0.00000000       0.00000000          1
6
pbc=[F, F, F] list_num_par=6 energy=-0.07282248 iter=169 frozen=false Lattice="15.00000000 0.00000000 0.00000000 0.00000000 15.00000000 0.00000000 0.00000000 0.00000000 15.00000000" energy_frozen_part=0.00000000 Properties=species:S:1:pos:R:3:velocities:R:3:Z:I:1
H        11.85138798       5.83467303      13.05121093         0.00000000       0.00000000       0.00000000          1
H         7.56266122      11.82463466       6.29923832         0.00000000       0.00000000       0.00000000          1
H         8.90275765       0.54897103       3.49410215         0.00000000       0.00000000       0.00000000          1
H         7.46574560      10.65663505      14.91013975         0.00000000       0.00000000       0.00000000          1
H        12.75024635       8.10720279      12.27580643         0.00000000       0.00000000       0.00000000          1
H         6.53246941       6.70559793      13.93207606         0.00000000       0.00000000       0.00000000          1
6
pbc=[F, F, F] list_num_par=6 energy=-0.08069808 iter=179 frozen=false Lattice="15.00000000 0.00000000 0.00000000 0.00000000 15.00000000 0.00000000 0.00000000 0.00000000 15.00000000" energy_frozen_part=0.00000000 Properties=species:S:1:pos:R:3:velocities:R:3:Z:I:1
H        14.66396558      12.10588920       6.27878791         0.00000000       0.00000000       0.00000000          1
H        11.42354267      14.27033003      14.78144370         0.00000000       0.00000000       0.00000000          1
H         8.96249074       2.55389969       1.39866380         0.00000000       0.00000000       0.00000000          1
H        11.18774473       9.35848852       2.98371248         0.00000000       0.00000000       0.00000000          1
H         1.35402529       6.70108939      13.74224042         0.00000000       0.00000000       0.00000000          1
H        12.65921901       8.35247681       5.75632300         0.00000000       0.00000000       0.00000000          1
6
pbc=[F, F, F] list_num_par=6 energy=-0.08615541 iter=189 frozen=false Lattice="15.00000000 0.00000000 0.00000000 0.00000000 15.00000000 0.00000000 0.00000000 0.00000000 15.00000000" energy_frozen_part=0.00000000 Properties=species:S:1:pos:R:3:velocities:R:3:Z:I:1
H         8.39452556       4.00089042      11.10776399         0.00000000       0.00000000       0.00000000          1
H         2.27864911       2.86963872       3.26727676         0.00000000       0.00000000       0.00000000          1
H         2.93746802      10.90029886      10.00629061         0.00000000       0.00000000       0.00000000          1
H        14.42436772       5.18593910       8.64532925         0.00000000       0.00000000       0.00000000          1
H         9.74006567       2.68494344       9.37678648         0.00000000       0.00000000       0.00000000          1
H         8.70017326       3.34666113       5.81312312         0.00000000       0.00000000       0.00000000          1
6
pbc=[F, F, F] list_num_par=6 energy=-0.08943665 iter=199 frozen=false Lattice="15.00000000 0.00000000 0.00000000 0.00000000 15.00000000 0.00000000 0.00000000 0.00000000 15.00000000" energy_frozen_part=0.00000000 Properties=species:S:1:pos:R:3:velocities:R:3:Z:I:1
H        10.18795541       8.27964367      12.90670253         0.00000000       0.00000000       0.00000000          1
H         7.23860936       8.68272443       8.70224259         0.00000000       0.00000000       0.00000000          1
H        13.98587009       4.71779795      12.97347390         0.00000000       0.00000000       0.00000000          1
H        13.56029497       2.30026840       9.18509951         0.00000000       0.00000000       0.00000000          1
H         0.90013872      10.70728855      13.02009948         0.00000000       0.00000000       0.00000000          1
H         4.93744232       7.23772106      10.53650003         0.00000000       0.00000000       0.00000000          1
6
pbc=[F, F, F] list_num_par=6 energy=-0.09318938 iter=209 frozen=false Lattice="15.00000000 0.00000000 0.00000000 0.00000000 15.00000000 0.00000000 0.00000000 0.00000000 15.00000000" energy_frozen_part=0.00000000 Properties=species:S:1:pos:R:3:velocities:R:3:Z:I:1
H        10.01889853      12.78858575      14.85158978         0.00000000       0.00000000       0.00000000          1
H         9.95375781      14.07282513       2.41451631         0.00000000       0.00000000       0.00000000          1
H        10.16166877       3.40735222       0.30309966         0.00000000       0.00000000       0.00000000          1
H         5.05262008       9.98983560      12.69111689         0.00000000       0.00000000       0.00000000          1
H        10.91125167       9.69656671       9.53480405         0.00000000       0.00000000       0.00000000          1
H         3.68453876      11.36396510      10.85588313         0.00000000       0.00000000       0.00000000          1
6
pbc=[F, F, F] list_num_par=6 energy=-0.09508658 iter=219 frozen=false Lattice="15.00000000 0.00000000 0.00000000 0.00000000 15.00000000 0.00000000 0.00000000 0.00000000 15.00000000" energy_frozen_part=0.00000000 Properties=species:S:1:pos:R:3:velocities:R:3:Z:I:1
H        12.76256503      14.25552427       4.78690624         0.00000000       0.00000000       0.00000000          1
H        10.61563186       8.33340164       2.64877169         0.00000000       0.00000000       0.00000000          1
H         2.04056841       4.60696232      14.51558707         0.00000000       0.00000000       0.00000000          1
H        13.53850759      13.14099150       7.40355376         0.00000000       0.00000000       0.00000000          1
H         2.58892955      11.75574557       8.61736819         0.00000000       0.00000000       0.00000000          1
H         6.74820728       1.05632460       0.44527657         0.00000000       0.00000000       0.00000000          1
6
pbc=[F, F, F] list_num_par=6 energy=-0.09792451 iter=229 frozen=false Lattice="15.00000000 0.00000000 0.00000000 0.00000000 15.00000000 0.00000000 0.00000000 0.00000000 15.00000000" energy_frozen_part=0.00000000 Properties=species:S:1:pos:R:3:velocities:R:3:Z:I:1
H         9.86764261       0.91280904       0.69142375         0.00000000       0.00000000       0.00000000          1
H         3.78527215       1.38300503       9.22731720         0.00000000       0.00000000       0.00000000          1
H         4.12145652      11.81467869       9.12179003         0.00000000       0.00000000       0.00000000          1
H         1.79143506       1.29506329      11.36800880         0.00000000       0.00000000       0.00000000          1
H        14.13872678       8.30612787       6.62504333         0.00000000       0.00000000       0.00000000          1
H         0.38448754       5.98920992       6.72229586         0.00000000       0.00000000       0.00000000          1
6
pbc=[F, F, F] list_num_par=6 energy=-0.10268776 iter=239 frozen=false Lattice="15.00000000 0.00000000 0.00000000 0.00000000 15.00000000 0.00000000 0.00000000 0.00000000 15.00000000" energy_frozen_part=0.00000000 Properties=species:S:1:pos:R:3:velocities:R:3:Z:I:1
H         0.18962643       9.01606518       3.05297945         0.00000000       0.00000000       0.00000000          1
H         9.91675020       6.80430560      14.98471969         0.00000000       0.00000000       0.00000000          1
H         3.47193986       7.69073693      11.71234899         0.00000000       0.00000000       0.00000000          1
H         8.67365829       7.30773505       4.56644678         0.00000000       0.00000000       0.00000000          1
H         3.16672844       4.95775419       2.93752422         0.00000000       0.00000000       0.00000000          1
H         2.81942546       9.81849359      13.63130649         0.00000000       0.00000000       0.00000000          1
6
pbc=[F, F, F] list_num_par=6 energy=-0.10523504 iter=249 frozen=false Lattice="15.00000000 0.00000000 0.00000000 0.00000000 15.00000000 0.00000000 0.00000000 0.00000000 15.00000000" energy_frozen_part=0.00000000 Properties=species:S:1:pos:R:3:velocities:R:3:Z:I:1
H         0.33997936       1.11236110      10.00659081         0.00000000       0.00000000       0.00000000          1
H         1.44802762      13.31688905       8.83537302         0.00000000       0.00000000       0.00000000          1
H         2.78478763      13.38117165       4.52435535         0.00000000       0.00000000       0.00000000          1
H         1.29968636       5.90462881       1.18194353         0.00000000       0.00000000       0.00000000          1
H         6.50088618       8.00340623       7.06203911         0.00000000       0.00000000       0.00000000          1
H         2.79040891       3.54261143       0.20317808         0.00000000       0.00000000       0.00000000          1
6
pbc=[F, F, F] list_num_par=6 energy=-0.10899147 iter=259 frozen=false Lattice="15.00000000 0.00000000 0.00000000 0.00000000 15.00000000 0.00000000 0.00000000 0.00000000 15.00000000" energy_frozen_part=0.00000000 Properties=species:S:1:pos:R:3:velocities:R:3:Z:I:1
H         1.95941408       5.52179002      11.32634908         0.00000000       0.00000000       0.00000000          1
H        12.85640865       7.13287100       1.14849057         0.00000000       0.00000000       0.00000000          1
H         4.38153694      11.19498582      11.12631517         0.00000000       0.00000000       0.00000000          1
H         1.61315009      10.89037854       7.38116762         0.00000000       0.00000000       0.00000000          1
H         7.33418147       7.67608280       8.00364988         0.00000000       0.00000000       0.00000000          1
H        10.84289962       5.35244262       1.24867320         0.00000000       0.00000000       0.00000000          1
6
pbc=[F, F, F] list_num_par=6 energy=-0.11253661 iter=269 frozen=false Lattice="15.00000000 0.00000000 0.00000000 0.00000000 15.00000000 0.00000000 0.00000000 0.00000000 15.00000000" energy_frozen_part=0.00000000 Properties=species:S:1:pos:R:3:velocities:R:3:Z:I:1
H         3.11321017      12.07897533       3.17865439         0.00000000       0.00000000       0.00000000          1
H         0.32562213       8.42347137       1.05419231         0.00000000       0.00000000       0.00000000          1
H         7.13993536       2.11638913       9.60105048         0.00000000       0.00000000       0.00000000          1
H        12.65376747      13.28548175       5.12075656         0.00000000       0.00000000       0.00000000          1
H        11.67676495      11.77705167       7.52080662         0.00000000       0.00000000       0.00000000          1
H         8.81741757       5.88498910       8.75655788         0.00000000       0.00000000       0.00000000          1
6
pbc=[F, F, F] list_num_par=6 energy=-0.11429863 iter=279 frozen=false Lattice="15.00000000 0.00000000 0.00000000 0.00000000 15.00000000 0.00000000 0.00000000 0.00000000 15.00000000" energy_frozen_part=0.00000000 Properties=species:S:1:pos:R:3:velocities:R:3:Z:I:1
H         8.18811275       9.78846683       5.10635106         0.00000000       0.00000000       0.00000000          1
H        11.63514328      14.16842401       4.22657781         0.00000000       0.00000000       0.00000000          1
H         8.20862039       5.07595133       9.12850119         0.00000000       0.00000000       0.00000000          1
H         5.85682747      12.47130837       2.80033534         0.00000000       0.00000000       0.00000000          1
H        14.35485291      13.88899594      11.40422587         0.00000000       0.00000000       0.00000000          1
H        14.76237723      12.46623751      13.97789454         0.00000000       0.00000000       0.00000000          1
6
pbc=[F, F, F] list_num_par=6 energy=-0.11729564 iter=289 frozen=false Lattice="15.00000000 0.00000000 0.00000000 0.00000000 15.00000000 0.00000000 0.00000000 0.00000000 15.00000000" energy_frozen_part=0.00000000 Properties=species:S:1:pos:R:3:velocities:R:3:Z:I:1
H         3.43776396       7.54611664      11.21984497         0.00000000       0.00000000       0.00000000          1
H         2.51329948       5.12113220       2.25787424         0.00000000       0.00000000       0.00000000          1
H         5.65690994       8.10490412      13.31574364         0.00000000       0.00000000       0.00000000          1
H         0.18042652       1.20551148       9.84749659         0.00000000       0.00000000       0.00000000          1
H         7.44894958      14.12666590      14.28363985         0.00000000       0.00000000       0.00000000          1
H         4.26420233       3.93382185       9.96581402         0.00000000       0.00000000       0.00000000          1
6
pbc=[F, F, F] list_num_par=6 energy=-0.12128187 iter=299 frozen=false Lattice="15.00000000 0.00000000 0.00000000 0.00000000 15.00000000 0.00000000 0.00000000 0.00000000 15.00000000" energy_frozen_part=0.00000000 Properties=species:S:1:pos:R:3:velocities:R:3:Z:I:1
H        10.78355946       7.89404677       5.75308531         0.00000000       0.00000000       0.00000000          1
H         8.44996749       5.21874201       6.58792988         0.00000000       0.00000000       0.00000000          1
H        13.31440179       4.57950778       9.14027096         0.00000000       0.00000000       0.00000000          1
H        13.58685192      11.82795643       5.52743279         0.00000000       0.00000000       0.00000000          1
H         7.45665446       8.09706927       9.44861648         0.00000000       0.00000000       0.00000000          1
H         8.93904999       1.66492498       6.80635421         0.00000000       0.00000000       0.00000000          1
6
pbc=[F, F, F] list_num_par=6 energy=-0.12581978 iter=309 frozen=false Lattice="15.00000000 0.00000000 0.00000000 0.00000000 15.00000000 0.00000000 0.00000000 0.00000000 15.00000000" energy_frozen_part=0.00000000 Properties=species:S:1:pos:R:3:velocities:R:3:Z:I:1
H         7.73194257       7.73843762      13.80341844         0.00000000       0.00000000       0.00000000          1
H         9.39447874       9.34508964       8.38386826         0.00000000       0.00000000       0.00000000          1