6
pbc=[F, F, F] list_num_par=6 energy=-1.26974174 iter=20000 frozen=false Lattice="15.00000000 0.00000000 0.00000000 0.00000000 15.00000000 0.00000000 0.00000000 0.00000000 15.00000000" energy_frozen_part=0.00000000 Properties=species:S:1:pos:R:3:velocities:R:3:Z:I:1
H        10.89817013       9.07386428       3.62521330         0.00000000       0.00000000       0.00000000          1
H         9.34551120      11.36857827       3.26770865         0.00000000       0.00000000       0.00000000          1
H         9.97163957      11.36807789       0.54516767         0.00000000       0.00000000       0.00000000          1
H         8.85353686       9.09434310       1.72171107         0.00000000       0.00000000       0.00000000          1
H        11.52431135       9.07336696       0.90267386         0.00000000       0.00000000       0.00000000          1
H        12.01628017      11.34760073       2.44866650         0.00000000       0.00000000       0.00000000          1
6
pbc=[F, F, F] list_num_par=6 energy=-1.26974174 iter=20000 frozen=false Lattice="15.00000000 0.00000000 0.00000000 0.00000000 15.00000000 0.00000000 0.00000000 0.00000000 15.00000000" energy_frozen_part=0.00000000 Properties=species:S:1:pos:R:3:velocities:R:3:Z:I:1
H        10.68253037       8.78193869       3.31350111         0.00000000       0.00000000       0.00000000          1
H         9.25153442      11.18023835       3.24499330         0.00000000       0.00000000       0.00000000          1
H         9.83214522      11.44899415       0.52562864         0.00000000       0.00000000       0.00000000          1
H         8.61122091       9.12042513       1.46975935         0.00000000       0.00000000       0.00000000          1
H        11.26314277       9.05069950       0.59413788         0.00000000       0.00000000       0.00000000          1
H        11.90345942      11.11051481       2.36937264         0.00000000       0.00000000       0.00000000          1
6
pbc=[F, F, F] list_num_par=6 energy=-1.26974174 iter=20000 frozen=false Lattice="15.00000000 0.00000000 0.00000000 0.00000000 15.00000000 0.00000000 0.00000000 0.00000000 15.00000000" energy_frozen_part=0.00000000 Properties=species:S:1:pos:R:3:velocities:R:3:Z:I:1
H        10.89817594       9.07386527       3.62521440         0.00000000       0.00000000       0.00000000          1
H         9.34551511      11.36858104       3.26770880         0.00000000       0.00000000       0.00000000          1
H         9.97164552      11.36808239       0.54516868         0.00000000       0.00000000       0.00000000          1
H         8.85354282       9.09434419       1.72171460         0.00000000       0.00000000       0.00000000          1
H        11.52431094       9.07336454       0.90267040         0.00000000       0.00000000       0.00000000          1
H        12.01628580      11.34759599       2.44867187         0.00000000       0.00000000       0.00000000          1
6
pbc=[F, F, F] list_num_par=6 energy=-1.26974174 iter=20000 frozen=false Lattice="15.00000000 0.00000000 0.00000000 0.00000000 15.00000000 0.00000000 0.00000000 0.00000000 15.00000000" energy_frozen_part=0.00000000 Properties=species:S:1:pos:R:3:velocities:R:3:Z:I:1
H        10.90870257       9.08558688       3.62400504         0.00000000       0.00000000       0.00000000          1
H         9.33448602      11.36211421       3.24509624         0.00000000       0.00000000       0.00000000          1
H         9.97306715      11.35102910       0.52546798         0.00000000       0.00000000       0.00000000          1
H         8.87270671       9.07341075       1.71118714         0.00000000       0.00000000       0.00000000          1
H        11.54727857       9.07450938       0.90437416         0.00000000       0.00000000       0.00000000          1
H        12.00905651      11.36321108       2.43828891         0.00000000       0.00000000       0.00000000          1
6
pbc=[F, F, F] list_num_par=6 energy=-1.26974174 iter=20000 frozen=false Lattice="15.00000000 0.00000000 0.00000000 0.00000000 15.00000000 0.00000000 0.00000000 0.00000000 15.00000000" energy_frozen_part=0.00000000 Properties=species:S:1:pos:R:3:velocities:R:3:Z:I:1
H        10.89813633       9.07387352       3.62524874         0.00000000       0.00000000       0.00000000          1
H         9.34550198      11.36859917       3.26768751         0.00000000       0.00000000       0.00000000          1
H         9.97174226      11.36810282       0.54516637         0.00000000       0.00000000       0.00000000          1
H         8.85356645       9.09437720       1.72166342         0.00000000       0.00000000       0.00000000          1
H        11.52436837       9.07337234       0.90272798         0.00000000       0.00000000       0.00000000          1
H        12.01630576      11.34760077       2.44874508         0.00000000       0.00000000       0.00000000          1
6
pbc=[F, F, F] list_num_par=6 energy=-1.26974174 iter=20000 frozen=false Lattice="15.00000000 0.00000000 0.00000000 0.00000000 15.00000000 0.00000000 0.00000000 0.00000000 15.00000000" energy_frozen_part=0.00000000 Properties=species:S:1:pos:R:3:velocities:R:3:Z:I:1
H        10.89840482       9.07370482       3.62527729         0.00000000       0.00000000       0.00000000          1
H         9.34543895      11.36831793       3.26843826         0.00000000       0.00000000       0.00000000          1
H         9.97063328      11.36802521       0.54567899         0.00000000       0.00000000       0.00000000          1
H         8.85311063       9.09413932       1.72247647         0.00000000       0.00000000       0.00000000          1
H        11.52359564       9.07341149       0.90251489         0.00000000       0.00000000       0.00000000          1
H        12.01593133      11.34759116       2.44847914         0.00000000       0.00000000       0.00000000          1
6
pbc=[F, F, F] list_num_par=6 energy=-1.26974174 iter=20000 frozen=false Lattice="15.00000000 0.00000000 0.00000000 0.00000000 15.00000000 0.00000000 0.00000000 0.00000000 15.00000000" energy_frozen_part=0.00000000 Properties=species:S:1:pos:R:3:velocities:R:3:Z:I:1
H        10.90860954       9.08552853       3.62399269         0.00000000       0.00000000       0.00000000          1
H         9.33444704      11.36208847       3.24507749         0.00000000       0.00000000       0.00000000          1
H         9.97311247      11.35103593       0.52546722         0.00000000       0.00000000       0.00000000          1
H         8.87267702       9.07341229       1.71111747         0.00000000       0.00000000       0.00000000          1
H        11.54727247       9.07447442       0.90438780         0.00000000       0.00000000       0.00000000          1
H        12.00904573      11.36314669       2.43834691         0.00000000       0.00000000       0.00000000          1
6
pbc=[F, F, F] list_num_par=6 energy=-1.26974174 iter=20000 frozen=false Lattice="15.00000000 0.00000000 0.00000000 0.00000000 15.00000000 0.00000000 0.00000000 0.00000000 15.00000000" energy_frozen_part=0.00000000 Properties=species:S:1:pos:R:3:velocities:R:3:Z:I:1
H        10.89812764       9.07385466       3.62521901         0.00000000       0.00000000       0.00000000          1
H         9.34546309      11.36856407       3.26766565         0.00000000       0.00000000       0.00000000          1
H         9.97164955      11.36804272       0.54513669         0.00000000       0.00000000       0.00000000          1
H         8.85352812       9.09431401       1.72168191         0.00000000       0.00000000       0.00000000          1
H        11.52431426       9.07334010       0.90268472         0.00000000       0.00000000       0.00000000          1
H        12.01625287      11.34758317       2.44868150         0.00000000       0.00000000       0.00000000          1
6
pbc=[F, F, F] list_num_par=6 energy=-1.26974174 iter=20000 frozen=false Lattice="15.00000000 0.00000000 0.00000000 0.00000000 15.00000000 0.00000000 0.00000000 0.00000000 15.00000000" energy_frozen_part=0.00000000 Properties=species:S:1:pos:R:3:velocities:R:3:Z:I:1
H        10.89816630       9.07385604       3.62521772         0.00000000       0.00000000       0.00000000          1
H         9.34551734      11.36857325       3.26769826         0.00000000       0.00000000       0.00000000          1
H         9.97168906      11.36807632       0.54516517         0.00000000       0.00000000       0.00000000          1
H         8.85355082       9.09434703       1.72168655         0.00000000       0.00000000       0.00000000          1
H        11.52433583       9.07335551       0.90269049         0.00000000       0.00000000       0.00000000          1
H        12.01629968      11.34758640       2.44869579         0.00000000       0.00000000       0.00000000          1
6
pbc=[F, F, F] list_num_par=6 energy=-1.26974174 iter=20000 frozen=false Lattice="15.00000000 0.00000000 0.00000000 0.00000000 15.00000000 0.00000000 0.00000000 0.00000000 15.00000000" energy_frozen_part=0.00000000 Properties=species:S:1:pos:R:3:velocities:R:3:Z:I:1
H        10.89838770       9.07372475       3.62529260         0.00000000       0.00000000       0.00000000          1
H         9.34542607      11.36834649       3.26844966         0.00000000       0.00000000       0.00000000          1
H         9.97062935      11.36804634       0.54568862         0.00000000       0.00000000       0.00000000          1
H         8.85309546       9.09416323       1.72249002         0.00000000       0.00000000       0.00000000          1
H        11.52359067       9.07343239       0.90253330         0.00000000       0.00000000       0.00000000          1
H        12.01591798      11.34761075       2.44849467         0.00000000       0.00000000       0.00000000          1
6
pbc=[F, F, F] list_num_par=6 energy=-1.26974174 iter=20000 frozen=false Lattice="15.00000000 0.00000000 0.00000000 0.00000000 15.00000000 0.00000000 0.00000000 0.00000000 15.00000000" energy_frozen_part=0.00000000 Properties=species:S:1:pos:R:3:velocities:R:3:Z:I:1
H        10.90858729       9.08554296       3.62400699         0.00000000       0.00000000       0.00000000          1
H         9.33442825      11.36209875       3.24506810         0.00000000       0.00000000       0.00000000          1
H         9.97308534      11.35101212       0.52545255         0.00000000       0.00000000       0.00000000          1
H         8.87264902       9.07340851       1.71113425         0.00000000       0.00000000       0.00000000          1
H        11.54724362       9.07445819       0.90439679         0.00000000       0.00000000       0.00000000          1
H        12.00902502      11.36314834       2.43832252         0.00000000       0.00000000       0.00000000          1
6
pbc=[F, F, F] list_num_par=6 energy=-1.26974174 iter=20000 frozen=false Lattice="15.00000000 0.00000000 0.00000000 0.00000000 15.00000000 0.00000000 0.00000000 0.00000000 15.00000000" energy_frozen_part=0.00000000 Properties=species:S:1:pos:R:3:velocities:R:3:Z:I:1
H        10.89840421       9.07369845       3.62527711         0.00000000       0.00000000       0.00000000          1
H         9.34544464      11.36831674       3.26844883         0.00000000       0.00000000       0.00000000          1
H         9.97064965      11.36803089       0.54568893         0.00000000       0.00000000       0.00000000          1
H         8.85311702       9.09414243       1.72248019         0.00000000       0.00000000       0.00000000          1
H        11.52360879       9.07341579       0.90252405         0.00000000       0.00000000       0.00000000          1
H        12.01593374      11.34759335       2.44849595         0.00000000       0.00000000       0.00000000          1
6
pbc=[F, F, F] list_num_par=6 energy=-1.26974174 iter=20000 frozen=false Lattice="15.00000000 0.00000000 0.00000000 0.00000000 15.00000000 0.00000000 0.00000000 0.00000000 15.00000000" energy_frozen_part=0.00000000 Properties=species:S:1:pos:R:3:velocities:R:3:Z:I:1
H        10.89840220       9.07370303       3.62527393         0.00000000       0.00000000       0.00000000          1
H         9.34543480      11.36831331       3.26844537         0.00000000       0.00000000       0.00000000          1
H         9.97062727      11.36802997       0.54568411         0.00000000       0.00000000       0.00000000          1
H         8.85310562       9.09414017       1.72248129         0.00000000       0.00000000       0.00000000          1
H        11.52359488       9.07341295       0.90251359         0.00000000       0.00000000       0.00000000          1
H        12.01592742      11.34759258       2.44847451         0.00000000       0.00000000       0.00000000          1
6
pbc=[F, F, F] list_num_par=6 energy=-1.26974174 iter=20000 frozen=false Lattice="15.00000000 0.00000000 0.00000000 0.00000000 15.00000000 0.00000000 0.00000000 0.00000000 15.00000000" energy_frozen_part=0.00000000 Properties=species:S:1:pos:R:3:velocities:R:3:Z:I:1
H        10.68294271       8.78225729       3.31339903         0.00000000       0.00000000       0.00000000          1
H         9.25210647      11.18064830       3.24477955         0.00000000       0.00000000       0.00000000          1
H         9.83237635      11.44900933       0.52530108         0.00000000       0.00000000       0.00000000          1
H         8.61140546       9.12065218       1.46989924         0.00000000       0.00000000       0.00000000          1
H        11.26321078       9.05061998       0.59392701         0.00000000       0.00000000       0.00000000          1
H        11.90390659      11.11061995       2.36880636         0.00000000       0.00000000       0.00000000          1
6
pbc=[F, F, F] list_num_par=6 energy=-1.26974174 iter=20000 frozen=false Lattice="15.00000000 0.00000000 0.00000000 0.00000000 15.00000000 0.00000000 0.00000000 0.00000000 15.00000000" energy_frozen_part=0.00000000 Properties=species:S:1:pos:R:3:velocities:R:3:Z:I:1
H        10.68260521       8.78196087       3.31353747         0.00000000       0.00000000       0.00000000          1
H         9.25158667      11.18024771       3.24497698         0.00000000       0.00000000       0.00000000          1
H         9.83219369      11.44894475       0.52560079         0.00000000       0.00000000       0.00000000          1
H         8.61128604       9.12039109       1.46979185         0.00000000       0.00000000       0.00000000          1
H        11.26321027       9.05066249       0.59416587         0.00000000       0.00000000       0.00000000          1
H        11.90350658      11.11052590       2.36935133         0.00000000       0.00000000       0.00000000          1
6
pbc=[F, F, F] list_num_par=6 energy=-1.26974174 iter=20000 frozen=false Lattice="15.00000000 0.00000000 0.00000000 0.00000000 15.00000000 0.00000000 0.00000000 0.00000000 15.00000000" energy_frozen_part=0.00000000 Properties=species:S:1:pos:R:3:velocities:R:3:Z:I:1
H        10.68253442       8.78193637       3.31349688         0.00000000       0.00000000       0.00000000          1
H         9.25153125      11.18023419       3.24498792         0.00000000       0.00000000       0.00000000          1
H         9.83214646      11.44899509       0.52562733         0.00000000       0.00000000       0.00000000          1
H         8.61122091       9.12042513       1.46975935         0.00000000       0.00000000       0.00000000          1
H        11.26314761       9.05069540       0.59413310         0.00000000       0.00000000       0.00000000          1
H        11.90345939      11.11050954       2.36936798         0.00000000       0.00000000       0.00000000          1
6
pbc=[F, F, F] list_num_par=6 energy=-1.26974174 iter=20000 frozen=false Lattice="15.00000000 0.00000000 0.00000000 0.00000000 15.00000000 0.00000000 0.00000000 0.00000000 15.00000000" energy_frozen_part=0.00000000 Properties=species:S:1:pos:R:3:velocities:R:3:Z:I:1
H        10.89838732       9.07368585       3.62526733         0.00000000       0.00000000       0.00000000          1
H         9.34543273      11.36831592       3.26846086         0.00000000       0.00000000       0.00000000          1
H         9.97061773      11.36805804       0.54570075         0.00000000       0.00000000       0.00000000          1
H         8.85308495       9.09415891       1.72247918         0.00000000       0.00000000       0.00000000          1
H        11.52357042       9.07342711       0.90250322         0.00000000       0.00000000       0.00000000          1
H        12.01591894      11.34758258       2.44849373         0.00000000       0.00000000       0.00000000          1
6
pbc=[F, F, F] list_num_par=6 energy=-1.26974174 iter=20000 frozen=false Lattice="15.00000000 0.00000000 0.00000000 0.00000000 15.00000000 0.00000000 0.00000000 0.00000000 15.00000000" energy_frozen_part=0.00000000 Properties=species:S:1:pos:R:3:velocities:R:3:Z:I:1
H        10.89817072       9.07384598       3.62519468         0.00000000       0.00000000       0.00000000          1
H         9.34549714      11.36855545       3.26768926         0.00000000       0.00000000       0.00000000          1
H         9.97164716      11.36806426       0.54514859         0.00000000       0.00000000       0.00000000          1
H         8.85354199       9.09432951       1.72167742         0.00000000       0.00000000       0.00000000          1
H        11.52431769       9.07335613       0.90265347         0.00000000       0.00000000       0.00000000          1
H        12.01627160      11.34758891       2.44865986         0.00000000       0.00000000       0.00000000          1
6
pbc=[F, F, F] list_num_par=6 energy=-1.26974174 iter=20000 frozen=false Lattice="15.00000000 0.00000000 0.00000000 0.00000000 15.00000000 0.00000000 0.00000000 0.00000000 15.00000000" energy_frozen_part=0.00000000 Properties=species:S:1:pos:R:3:velocities:R:3:Z:I:1
H        10.68253442       8.78193637       3.31349688         0.00000000       0.00000000       0.00000000          1
H         9.25153858      11.18023347       3.24499475         0.00000000       0.00000000       0.00000000          1
H         9.83214844      11.44900529       0.52563122         0.00000000       0.00000000       0.00000000          1
H         8.61121924       9.12043159       1.46975739         0.00000000       0.00000000       0.00000000          1
H        11.26314055       9.05069800       0.59412952         0.00000000       0.00000000       0.00000000          1
H        11.90346207      11.11050710       2.36936974         0.00000000       0.00000000       0.00000000          1
6
pbc=[F, F, F] list_num_par=6 energy=-1.26974174 iter=20000 frozen=false Lattice="15.00000000 0.00000000 0.00000000 0.00000000 15.00000000 0.00000000 0.00000000 0.00000000 15.00000000" energy_frozen_part=0.00000000 Properties=species:S:1:pos:R:3:velocities:R:3:Z:I:1
H        10.90858549       9.08554955       3.62400941         0.00000000       0.00000000       0.00000000          1
H         9.33443138      11.36210553       3.24505766         0.00000000       0.00000000       0.00000000          1
H         9.97308594      11.35101215       0.52545075         0.00000000       0.00000000       0.00000000          1
H         8.87264849       9.07340778       1.71113594         0.00000000       0.00000000       0.00000000          1
H        11.54724650       9.07445560       0.90439535         0.00000000       0.00000000       0.00000000          1
H        12.00902502      11.36314834       2.43832252         0.00000000       0.00000000       0.00000000          1
6
pbc=[F, F, F] list_num_par=6 energy=-1.26974174 iter=20000 frozen=false Lattice="15.00000000 0.00000000 0.00000000 0.00000000 15.00000000 0.00000000 0.00000000 0.00000000 15.00000000" energy_frozen_part=0.00000000 Properties=species:S:1:pos:R:3:velocities:R:3:Z:I:1
H        10.89815597       9.07387302       3.62524274         0.00000000       0.00000000       0.00000000          1
H         9.34552267      11.36859831       3.26771214         0.00000000       0.00000000       0.00000000          1
H         9.97171419      11.36809893       0.54517944         0.00000000       0.00000000       0.00000000          1
H         8.85355414       9.09437772       1.72169725         0.00000000       0.00000000       0.00000000          1
H        11.52434803       9.07337021       0.90271636         0.00000000       0.00000000       0.00000000          1
H        12.01631139      11.34759840       2.44872847         0.00000000       0.00000000       0.00000000          1
6
pbc=[F, F, F] list_num_par=6 energy=-1.26974174 iter=20000 frozen=false Lattice="15.00000000 0.00000000 0.00000000 0.00000000 15.00000000 0.00000000 0.00000000 0.00000000 15.00000000" energy_frozen_part=0.00000000 Properties=species:S:1:pos:R:3:velocities:R:3:Z:I:1
H        10.89814762       9.07386849       3.62524488         0.00000000       0.00000000       0.00000000          1
H         9.34550414      11.36858684       3.26768106         0.00000000       0.00000000       0.00000000          1
H         9.97172523      11.36807961       0.54516073         0.00000000       0.00000000       0.00000000          1
H         8.85357390       9.09435286       1.72167563         0.00000000       0.00000000       0.00000000          1
H        11.52436430       9.07335596       0.90272177         0.00000000       0.00000000       0.00000000          1
H        12.01630031      11.34759329       2.44872482         0.00000000       0.00000000       0.00000000          1
6
pbc=[F, F, F] list_num_par=6 energy=-1.26974174 iter=20000 frozen=false Lattice="15.00000000 0.00000000 0.00000000 0.00000000 15.00000000 0.00000000 0.00000000 0.00000000 15.00000000" energy_frozen_part=0.00000000 Properties=species:S:1:pos:R:3:velocities:R:3:Z:I:1
H        10.89819025       9.07388768       3.62522336         0.00000000       0.00000000       0.00000000          1
H         9.34553814      11.36860153       3.26769676         0.00000000       0.00000000       0.00000000          1
H         9.97169395      11.36809047       0.54515565         0.00000000       0.00000000       0.00000000          1
H         8.85357334       9.09436698       1.72169901         0.00000000       0.00000000       0.00000000          1
H        11.52435675       9.07337641       0.90268528         0.00000000       0.00000000       0.00000000          1
H        12.01631359      11.34761576       2.44867710         0.00000000       0.00000000       0.00000000          1
6
pbc=[F, F, F] list_num_par=6 energy=-1.26974174 iter=20000 frozen=false Lattice="15.00000000 0.00000000 0.00000000 0.00000000 15.00000000 0.00000000 0.00000000 0.00000000 15.00000000" energy_frozen_part=0.00000000 Properties=species:S:1:pos:R:3:velocities:R:3:Z:I:1
H        10.89838361       9.07368142       3.62526506         0.00000000       0.00000000       0.00000000          1
H         9.34543596      11.36831367       3.26846539         0.00000000       0.00000000       0.00000000          1
H         9.97061648      11.36805471       0.54570119         0.00000000       0.00000000       0.00000000          1
H         8.85308511       9.09415722       1.72247483         0.00000000       0.00000000       0.00000000          1
H        11.52357174       9.07342331       0.90250569         0.00000000       0.00000000       0.00000000          1
H        12.01591675      11.34758334       2.44849132         0.00000000       0.00000000       0.00000000          1
6
pbc=[F, F, F] list_num_par=6 energy=-1.26974174 iter=20000 frozen=false Lattice="15.00000000 0.00000000 0.00000000 0.00000000 15.00000000 0.00000000 0.00000000 0.00000000 15.00000000" energy_frozen_part=0.00000000 Properties=species:S:1:pos:R:3:velocities:R:3:Z:I:1
H        10.89814210       9.07386455       3.62523866         0.00000000       0.00000000       0.00000000          1
H         9.34551391      11.36859527       3.26768933         0.00000000       0.00000000       0.00000000          1
H         9.97172196      11.36809430       0.54516823         0.00000000       0.00000000       0.00000000          1
H         8.85355600       9.09436898       1.72167639         0.00000000       0.00000000       0.00000000          1
H        11.52434611       9.07335622       0.90271433         0.00000000       0.00000000       0.00000000          1
H        12.01630671      11.34758388       2.44872438         0.00000000       0.00000000       0.00000000          1
6
pbc=[F, F, F] list_num_par=6 energy=-1.26974174 iter=20000 frozen=false Lattice="15.00000000 0.00000000 0.00000000 0.00000000 15.00000000 0.00000000 0.00000000 0.00000000 15.00000000" energy_frozen_part=0.00000000 Properties=species:S:1:pos:R:3:velocities:R:3:Z:I:1
H        10.68197536       8.78157813       3.31541190         0.00000000       0.00000000       0.00000000          1
H         9.25296190      11.18104353       3.24629310         0.00000000       0.00000000       0.00000000          1
H         9.83511276      11.44942931       0.52722137         0.00000000       0.00000000       0.00000000          1
H         8.61183325       9.12181858       1.47067722         0.00000000       0.00000000       0.00000000          1
H        11.26412974       9.04996479       0.59633854         0.00000000       0.00000000       0.00000000          1
H        11.90525034      11.10919232       2.37195583         0.00000000       0.00000000       0.00000000          1
6
pbc=[F, F, F] list_num_par=6 energy=-1.26974174 iter=20000 frozen=false Lattice="15.00000000 0.00000000 0.00000000 0.00000000 15.00000000 0.00000000 0.00000000 0.00000000 15.00000000" energy_frozen_part=0.00000000 Properties=species:S:1:pos:R:3:velocities:R:3:Z:I:1
H        10.89813499       9.07386486       3.62524225         0.00000000       0.00000000       0.00000000          1
H         9.34550791      11.36859406       3.26768591         0.00000000       0.00000000       0.00000000          1
H         9.97173062      11.36808557       0.54516076         0.00000000       0.00000000       0.00000000          1
H         8.85355715       9.09436479       1.72166891         0.00000000       0.00000000       0.00000000          1
H        11.52435506       9.07335685       0.90271931         0.00000000       0.00000000       0.00000000          1
H        12.01630529      11.34758941       2.44872853         0.00000000       0.00000000       0.00000000          1
6
pbc=[F, F, F] list_num_par=6 energy=-1.26974174 iter=20000 frozen=false Lattice="15.00000000 0.00000000 0.00000000 0.00000000 15.00000000 0.00000000 0.00000000 0.00000000 15.00000000" energy_frozen_part=0.00000000 Properties=species:S:1:pos:R:3:velocities:R:3:Z:I:1
H        10.89819751       9.07387020       3.62523020         0.00000000       0.00000000       0.00000000          1
H         9.34555240      11.36859352       3.26769086         0.00000000       0.00000000       0.00000000          1
H         9.97172091      11.36807917       0.54516061         0.00000000       0.00000000       0.00000000          1
H         8.85358554       9.09435634       1.72170460         0.00000000       0.00000000       0.00000000          1
H        11.52436796       9.07335876       0.90269727         0.00000000       0.00000000       0.00000000          1
H        12.01633523      11.34759432       2.44869110         0.00000000       0.00000000       0.00000000          1
6
pbc=[F, F, F] list_num_par=6 energy=-1.26974174 iter=20000 frozen=false Lattice="15.00000000 0.00000000 0.00000000 0.00000000 15.00000000 0.00000000 0.00000000 0.00000000 15.00000000" energy_frozen_part=0.00000000 Properties=species:S:1:pos:R:3:velocities:R:3:Z:I:1
H        10.89817039       9.07387779       3.62522083         0.00000000       0.00000000       0.00000000          1
H         9.34551220      11.36859428       3.26769987         0.00000000       0.00000000       0.00000000          1
H         9.97167515      11.36808474       0.54516403         0.00000000       0.00000000       0.00000000          1
H         8.85355087       9.09435904       1.72169631         0.00000000       0.00000000       0.00000000          1
H        11.52433622       9.07337329       0.90268688         0.00000000       0.00000000       0.00000000          1
H        12.01629035      11.34760706       2.44868973         0.00000000       0.00000000       0.00000000          1
6
pbc=[F, F, F] list_num_par=6 energy=-1.26974174 iter=20000 frozen=false Lattice="15.00000000 0.00000000 0.00000000 0.00000000 15.00000000 0.00000000 0.00000000 0.00000000 15.00000000" energy_frozen_part=0.00000000 Properties=species:S:1:pos:R:3:velocities:R:3:Z:I:1
H        10.89812905       9.07387396       3.62524637         0.00000000       0.00000000       0.00000000          1
H         9.34549690      11.36859756       3.26767461         0.00000000       0.00000000       0.00000000          1
H         9.97171996      11.36807985       0.54515319         0.00000000       0.00000000       0.00000000          1
H         8.85355573       9.09436167       1.72167253         0.00000000       0.00000000       0.00000000          1
H        11.52435534       9.07335216       0.90272634         0.00000000       0.00000000       0.00000000          1
H        12.01629904      11.34758828       2.44872141         0.00000000       0.00000000       0.00000000          1
6
pbc=[F, F, F] list_num_par=6 energy=-1.26974174 iter=20000 frozen=false Lattice="15.00000000 0.00000000 0.00000000 0.00000000 15.00000000 0.00000000 0.00000000 0.00000000 15.00000000" energy_frozen_part=0.00000000 Properties=species:S:1:pos:R:3:velocities:R:3:Z:I:1
H        10.89820659       9.07387092       3.62522163         0.00000000       0.00000000       0.00000000          1
H         9.34555910      11.36859202       3.26769015         0.00000000       0.00000000       0.00000000          1