6
pbc=[F, F, F] list_num_par=6 frozen=false iter=9 energy=629.32376322 Lattice="15.00000000 0.00000000 0.00000000 0.00000000 15.00000000 0.00000000 0.00000000 0.00000000 15.00000000" energy_frozen_part=0.00000000 Properties=species:S:1:pos:R:3:velocities:R:3:Z:I:1
H         5.05945269       8.61620396      10.06623398         0.00000000       0.00000000       0.00000000          1
H         5.25097056       7.26934771       5.73893912         0.00000000       0.00000000       0.00000000          1
H         2.06224733       1.36564237       5.55676523         0.00000000       0.00000000       0.00000000          1
H         8.42468604      12.18369072       5.69206535         0.00000000       0.00000000       0.00000000          1
H         4.46584602       8.07699887       4.99313020         0.00000000       0.00000000       0.00000000          1
H         6.01796632      11.69276037       5.76684750         0.00000000       0.00000000       0.00000000          1
6
pbc=[F, F, F] list_num_par=6 frozen=false iter=19 energy=1.39552658 Lattice="15.00000000 0.00000000 0.00000000 0.00000000 15.00000000 0.00000000 0.00000000 0.00000000 15.00000000" energy_frozen_part=0.00000000 Properties=species:S:1:pos:R:3:velocities:R:3:Z:I:1
H         8.77890910       7.96566377       9.32752978         0.00000000       0.00000000       0.00000000          1
H         8.18986421       6.17718328       8.29400689         0.00000000       0.00000000       0.00000000          1
H         6.98881959       7.97910803      11.13122108         0.00000000       0.00000000       0.00000000          1
H        13.99046337       3.60032337      13.20505096         0.00000000       0.00000000       0.00000000          1
H        12.12835680      11.79151147      11.33231761         0.00000000       0.00000000       0.00000000          1
H         7.25466062       3.81953334       0.82329530         0.00000000       0.00000000       0.00000000          1
6
pbc=[F, F, F] list_num_par=6 frozen=false iter=29 energy=0.14594607 Lattice="15.00000000 0.00000000 0.00000000 0.00000000 15.00000000 0.00000000 0.00000000 0.00000000 15.00000000" energy_frozen_part=0.00000000 Properties=species:S:1:pos:R:3:velocities:R:3:Z:I:1
H         7.99167945       6.39289646      14.98517108         0.00000000       0.00000000       0.00000000          1
H         3.95460932      11.87010738       8.60600758         0.00000000       0.00000000       0.00000000          1
H         6.30820596      13.24029370       5.86734169         0.00000000       0.00000000       0.00000000          1
H        11.53303614      13.13683817       3.28343762         0.00000000       0.00000000       0.00000000          1
H         0.94044541       8.86912467       5.75159264         0.00000000       0.00000000       0.00000000          1
H         6.36803834       7.14278321      13.41333909         0.00000000       0.00000000       0.00000000          1
6
pbc=[F, F, F] list_num_par=6 frozen=false iter=39 energy=-0.00286202 Lattice="15.00000000 0.00000000 0.00000000 0.00000000 15.00000000 0.00000000 0.00000000 0.00000000 15.00000000" energy_frozen_part=0.00000000 Properties=species:S:1:pos:R:3:velocities:R:3:Z:I:1
H         1.36687951       8.32721784       5.07318234         0.00000000       0.00000000       0.00000000          1
H        12.82126024       7.76522162       1.57481649         0.00000000       0.00000000       0.00000000          1
H         2.58543733       9.12458564      14.37230035         0.00000000       0.00000000       0.00000000          1
H         9.09479210      12.83961809       5.44834698         0.00000000       0.00000000       0.00000000          1
H         6.79756897      14.28482145      12.37680258         0.00000000       0.00000000       0.00000000          1
H         9.83464275       7.20202283      10.18342602         0.00000000       0.00000000       0.00000000          1
6
pbc=[F, F, F] list_num_par=6 frozen=false iter=49 energy=-0.00425144 Lattice="15.00000000 0.00000000 0.00000000 0.00000000 15.00000000 0.00000000 0.00000000 0.00000000 15.00000000" energy_frozen_part=0.00000000 Properties=species:S:1:pos:R:3:velocities:R:3:Z:I:1
H        10.36965215       7.16070263       7.74066322         0.00000000       0.00000000       0.00000000          1
H         7.69728844      14.95377748      13.98359354         0.00000000       0.00000000       0.00000000          1
H         0.22887505      10.59553934       2.61616458         0.00000000       0.00000000       0.00000000          1
H         8.69365038      13.80233017       8.46927383         0.00000000       0.00000000       0.00000000          1
H         0.24783101      13.66884740      11.97561809         0.00000000       0.00000000       0.00000000          1
H         8.05601463      14.25858923       0.46593220         0.00000000       0.00000000       0.00000000          1
6
pbc=[F, F, F] list_num_par=6 frozen=false iter=59 energy=-0.00690342 Lattice="15.00000000 0.00000000 0.00000000 0.00000000 15.00000000 0.00000000 0.00000000 0.00000000 15.00000000" energy_frozen_part=0.00000000 Properties=species:S:1:pos:R:3:velocities:R:3:Z:I:1
H         5.00401528      11.49733768       6.39352596         0.00000000       0.00000000       0.00000000          1
H         8.14637492       9.34569933      13.07061805         0.00000000       0.00000000       0.00000000          1
H        13.15795301       9.66757273       9.82069534         0.00000000       0.00000000       0.00000000          1
H        12.68484957       1.69594925       5.62353896         0.00000000       0.00000000       0.00000000          1
H        13.74660374      12.81730880       1.08949383         0.00000000       0.00000000       0.00000000          1
H        14.14557060       7.51872343       0.39393805         0.00000000       0.00000000       0.00000000          1
6
pbc=[F, F, F] list_num_par=6 frozen=false iter=69 energy=-0.00996132 Lattice="15.00000000 0.00000000 0.00000000 0.00000000 15.00000000 0.00000000 0.00000000 0.00000000 15.00000000" energy_frozen_part=0.00000000 Properties=species:S:1:pos:R:3:velocities:R:3:Z:I:1
H         1.93960883       1.59921564      14.98536910         0.00000000       0.00000000       0.00000000          1
H        10.19961606       2.06613986       9.91708067         0.00000000       0.00000000       0.00000000          1
H         7.33216686      11.84329078       9.10550071         0.00000000       0.00000000       0.00000000          1
H         5.55614982       3.45419342      11.71741683         0.00000000       0.00000000       0.00000000          1
H         2.35088507       1.71286895       3.45101955         0.00000000       0.00000000       0.00000000          1
H        13.42803976       0.48057960       1.96166484         0.00000000       0.00000000       0.00000000          1
6
pbc=[F, F, F] list_num_par=6 frozen=false iter=79 energy=-0.01331431 Lattice="15.00000000 0.00000000 0.00000000 0.00000000 15.00000000 0.00000000 0.00000000 0.00000000 15.00000000" energy_frozen_part=0.00000000 Properties=species:S:1:pos:R:3:velocities:R:3:Z:I:1
H         9.30188287      11.12359741      10.85635675         0.00000000       0.00000000       0.00000000          1
H         3.99506508       0.32641129       2.01451784         0.00000000       0.00000000       0.00000000          1
H         4.29671553       3.90618762       9.65809122         0.00000000       0.00000000       0.00000000          1
H         9.40464565       1.67553999      12.22388704         0.00000000       0.00000000       0.00000000          1
H         3.23388417       8.43904515      13.45425511         0.00000000       0.00000000       0.00000000          1
H         9.03256045      14.83775575       7.96668513         0.00000000       0.00000000       0.00000000          1
6
pbc=[F, F, F] list_num_par=6 frozen=false iter=89 energy=-0.01668842 Lattice="15.00000000 0.00000000 0.00000000 0.00000000 15.00000000 0.00000000 0.00000000 0.00000000 15.00000000" energy_frozen_part=0.00000000 Properties=species:S:1:pos:R:3:velocities:R:3:Z:I:1
H         8.51093393       6.03168991      11.70689875         0.00000000       0.00000000       0.00000000          1
H         8.19947505       8.12203893       6.24770459         0.00000000       0.00000000       0.00000000          1
H         8.34638559      12.50637690       5.51640960         0.00000000       0.00000000       0.00000000          1
H        13.68258869       8.64927416       1.33082893         0.00000000       0.00000000       0.00000000          1
H         0.70380284       7.79755124       5.14555469         0.00000000       0.00000000       0.00000000          1
H         1.92643825       5.88075923      14.00972473         0.00000000       0.00000000       0.00000000          1
6
pbc=[F, F, F] list_num_par=6 frozen=false iter=99 energy=-0.02148418 Lattice="15.00000000 0.00000000 0.00000000 0.00000000 15.00000000 0.00000000 0.00000000 0.00000000 15.00000000" energy_frozen_part=0.00000000 Properties=species:S:1:pos:R:3:velocities:R:3:Z:I:1
H         8.74892104       4.85756006       9.91781991         0.00000000       0.00000000       0.00000000          1
H        10.48030489       0.45666090      10.31223097         0.00000000       0.00000000       0.00000000          1
H         6.15677863      13.98545799       9.45114008         0.00000000       0.00000000       0.00000000          1
H         4.80594718      12.11725638       0.71004219         0.00000000       0.00000000       0.00000000          1
H         0.24024951      10.61746981       4.53905505         0.00000000       0.00000000       0.00000000          1
H         8.88960945      10.08081061      10.61159866         0.00000000       0.00000000       0.00000000          1
6
pbc=[F, F, F] list_num_par=6 frozen=false iter=109 energy=-0.02856171 Lattice="15.00000000 0.00000000 0.00000000 0.00000000 15.00000000 0.00000000 0.00000000 0.00000000 15.00000000" energy_frozen_part=0.00000000 Properties=species:S:1:pos:R:3:velocities:R:3:Z:I:1
H         1.00173483       3.18611918       7.25776805         0.00000000       0.00000000       0.00000000          1
H         8.68510773       2.37559817      10.77589870         0.00000000       0.00000000       0.00000000          1
H         6.12454634       4.58425814      14.19085176         0.00000000       0.00000000       0.00000000          1
H         6.23557507      11.95645612       2.54858703         0.00000000       0.00000000       0.00000000          1
H         6.35517470      14.74742460       9.09797290         0.00000000       0.00000000       0.00000000          1
H         0.30783005       1.01841831      10.66761321         0.00000000       0.00000000       0.00000000          1
6
pbc=[F, F, F] list_num_par=6 frozen=false iter=119 energy=-0.03208004 Lattice="15.00000000 0.00000000 0.00000000 0.00000000 15.00000000 0.00000000 0.00000000 0.00000000 15.00000000" energy_frozen_part=0.00000000 Properties=species:S:1:pos:R:3:velocities:R:3:Z:I:1
H         4.63329594       6.34480758       6.03706093         0.00000000       0.00000000       0.00000000          1
H         9.58861745       0.76373211      10.59863090         0.00000000       0.00000000       0.00000000          1
H         1.95094666      12.54738146       9.89699891         0.00000000       0.00000000       0.00000000          1
H         5.67713644      13.24778115       3.83115270         0.00000000       0.00000000       0.00000000          1
H         0.58324173       8.11317622      10.37505368         0.00000000       0.00000000       0.00000000          1
H         5.97972786       9.91943189       8.74932674         0.00000000       0.00000000       0.00000000          1
6
pbc=[F, F, F] list_num_par=6 frozen=false iter=129 energy=-0.03621123 Lattice="15.00000000 0.00000000 0.00000000 0.00000000 15.00000000 0.00000000 0.00000000 0.00000000 15.00000000" energy_frozen_part=0.00000000 Properties=species:S:1:pos:R:3:velocities:R:3:Z:I:1
H        11.91665665       2.45338388      11.96117103         0.00000000       0.00000000       0.00000000          1
H         9.12177577      11.18275736       5.65290847         0.00000000       0.00000000       0.00000000          1
H        12.84180941       2.79378243       3.44150514         0.00000000       0.00000000       0.00000000          1
H         1.81199404       6.23293510       9.45118461         0.00000000       0.00000000       0.00000000          1
H         3.97046883      14.01471972      12.52996005         0.00000000       0.00000000       0.00000000          1
H        12.37929418      11.88505810       7.19533948         0.00000000       0.00000000       0.00000000          1
6
pbc=[F, F, F] list_num_par=6 frozen=false iter=139 energy=-0.04345259 Lattice="15.00000000 0.00000000 0.00000000 0.00000000 15.00000000 0.00000000 0.00000000 0.00000000 15.00000000" energy_frozen_part=0.00000000 Properties=species:S:1:pos:R:3:velocities:R:3:Z:I:1
H         5.10495525       5.31844626       5.93883393         0.00000000       0.00000000       0.00000000          1
H        14.13226869       4.19182304       0.35571273         0.00000000       0.00000000       0.00000000          1
H         3.47188686       0.30323108       2.97274095         0.00000000       0.00000000       0.00000000          1
H         2.32204146       2.16269827       5.23287979         0.00000000       0.00000000       0.00000000          1
H         2.90616742       4.59527319       5.13916107         0.00000000       0.00000000       0.00000000          1
H        14.94397809      14.20200678      13.70413021         0.00000000       0.00000000       0.00000000          1
6
pbc=[F, F, F] list_num_par=6 frozen=false iter=149 energy=-0.04665993 Lattice="15.00000000 0.00000000 0.00000000 0.00000000 15.00000000 0.00000000 0.00000000 0.00000000 15.00000000" energy_frozen_part=0.00000000 Properties=species:S:1:pos:R:3:velocities:R:3:Z:I:1
H         6.40731486       8.15828840       9.57540807         0.00000000       0.00000000       0.00000000          1
H         4.00087029      12.08500760       4.08092515         0.00000000       0.00000000       0.00000000          1
H        13.25742624       0.89641910       1.53739937         0.00000000       0.00000000       0.00000000          1
H        13.32168453       9.80410995       0.99758634         0.00000000       0.00000000       0.00000000          1
H         3.54449593      12.71981156       7.76005638         0.00000000       0.00000000       0.00000000          1
H         2.98710558       5.43356420       8.40908072         0.00000000       0.00000000       0.00000000          1
6
pbc=[F, F, F] list_num_par=6 frozen=false iter=159 energy=-0.05220479 Lattice="15.00000000 0.00000000 0.00000000 0.00000000 15.00000000 0.00000000 0.00000000 0.00000000 15.00000000" energy_frozen_part=0.00000000 Properties=species:S:1:pos:R:3:velocities:R:3:Z:I:1
H         7.57390427      10.69879903       7.07831516         0.00000000       0.00000000       0.00000000          1
H        14.70235620       1.31029878       9.68357799         0.00000000       0.00000000       0.00000000          1
H         5.18671052       9.45184032       9.80059570         0.00000000       0.00000000       0.00000000          1
H         5.28460637       8.03991639       1.13922283         0.00000000       0.00000000       0.00000000          1
H         7.65689032       5.66619616       4.02488284         0.00000000       0.00000000       0.00000000          1
H         9.94831493       2.24975613       1.41413161         0.00000000       0.00000000       0.00000000          1
6
pbc=[F, F, F] list_num_par=6 frozen=false iter=169 energy=-0.05736995 Lattice="15.00000000 0.00000000 0.00000000 0.00000000 15.00000000 0.00000000 0.00000000 0.00000000 15.00000000" energy_frozen_part=0.00000000 Properties=species:S:1:pos:R:3:velocities:R:3:Z:I:1
H         0.23160116      12.38210120       3.60595060         0.00000000       0.00000000       0.00000000          1
H        11.12971233       8.95629649      14.81683233         0.00000000       0.00000000       0.00000000          1
H        11.81499901      12.91811410      14.54010222         0.00000000       0.00000000       0.00000000          1
H        13.85537603       0.07793204       0.55043495         0.00000000       0.00000000       0.00000000          1
H        13.54393140      12.14521548       1.08635194         0.00000000       0.00000000       0.00000000          1
H        10.59062703      10.10573072       0.32903374         0.00000000       0.00000000       0.00000000          1
6
pbc=[F, F, F] list_num_par=6 frozen=false iter=179 energy=-0.06268321 Lattice="15.00000000 0.00000000 0.00000000 0.00000000 15.00000000 0.00000000 0.00000000 0.00000000 15.00000000" energy_frozen_part=0.00000000 Properties=species:S:1:pos:R:3:velocities:R:3:Z:I:1
H         8.43638263       2.33048395       6.78760569         0.00000000       0.00000000       0.00000000          1
H         0.18573621       1.08585239      13.01031983         0.00000000       0.00000000       0.00000000          1
H         3.03801066       8.23344250      11.63805178         0.00000000       0.00000000       0.00000000          1
H         3.84343727       5.80488022       8.62505579         0.00000000       0.00000000       0.00000000          1
H         1.53392268       0.88543921       4.55968831         0.00000000       0.00000000       0.00000000          1
H         6.67731360       0.06964675       9.20539659         0.00000000       0.00000000       0.00000000          1
6
pbc=[F, F, F] list_num_par=6 frozen=false iter=189 energy=-0.06542721 Lattice="15.00000000 0.00000000 0.00000000 0.00000000 15.00000000 0.00000000 0.00000000 0.00000000 15.00000000" energy_frozen_part=0.00000000 Properties=species:S:1:pos:R:3:velocities:R:3:Z:I:1
H        12.15977855       2.72769063       2.01956662         0.00000000       0.00000000       0.00000000          1
H         8.08743277      13.55658768      12.05782764         0.00000000       0.00000000       0.00000000          1
H         0.57622339      10.59882751      12.99903725         0.00000000       0.00000000       0.00000000          1
H         3.30668895      11.79892569      10.64867831         0.00000000       0.00000000       0.00000000          1
H         5.21683519       3.18517716       9.13180691         0.00000000       0.00000000       0.00000000          1
H        10.04395000       5.84829865       1.84789278         0.00000000       0.00000000       0.00000000          1
6
pbc=[F, F, F] list_num_par=6 frozen=false iter=199 energy=-0.07050857 Lattice="15.00000000 0.00000000 0.00000000 0.00000000 15.00000000 0.00000000 0.00000000 0.00000000 15.00000000" energy_frozen_part=0.00000000 Properties=species:S:1:pos:R:3:velocities:R:3:Z:I:1
H         2.17183106       8.90606468      10.05879477         0.00000000       0.00000000       0.00000000          1
H         4.55341182       8.89443028       2.62372597         0.00000000       0.00000000       0.00000000          1
H        11.05889245       5.20172618       3.64287776         0.00000000       0.00000000       0.00000000          1
H        12.69074617       8.36647997      13.33164906         0.00000000       0.00000000       0.00000000          1
H         3.35514944      11.12765019       2.01318014         0.00000000       0.00000000       0.00000000          1
H         9.98427433       1.20636111      10.26986874         0.00000000       0.00000000       0.00000000          1
6
pbc=[F, F, F] list_num_par=6 frozen=false iter=209 energy=-0.07419129 Lattice="15.00000000 0.00000000 0.00000000 0.00000000 15.00000000 0.00000000 0.00000000 0.00000000 15.00000000" energy_frozen_part=0.00000000 Properties=species:S:1:pos:R:3:velocities:R:3:Z:I:1
H        12.44157597       6.86438438       3.62923621         0.00000000       0.00000000       0.00000000          1
H        13.86029883       7.19910174      11.24325027         0.00000000       0.00000000       0.00000000          1
H         2.77416769       5.16469245       5.50735994         0.00000000       0.00000000       0.00000000          1
H        12.92463081       4.17050178      10.80204744         0.00000000       0.00000000       0.00000000          1
H         8.68842281       2.04185141       5.05863172         0.00000000       0.00000000       0.00000000          1
H        12.27093554      14.51296157       5.52309674         0.00000000       0.00000000       0.00000000          1
6
pbc=[F, F, F] list_num_par=6 frozen=false iter=219 energy=-0.08005194 Lattice="15.00000000 0.00000000 0.00000000 0.00000000 15.00000000 0.00000000 0.00000000 0.00000000 15.00000000" energy_frozen_part=0.00000000 Properties=species:S:1:pos:R:3:velocities:R:3:Z:I:1
H         6.87506745      12.14493238       7.09213258         0.00000000       0.00000000       0.00000000          1
H         9.80216816       4.95783665      10.74990889         0.00000000       0.00000000       0.00000000          1
H         7.75129659      12.38678589      13.74613730         0.00000000       0.00000000       0.00000000          1
H         2.46950081      13.64739047       1.70518046         0.00000000       0.00000000       0.00000000          1
H         3.23141454       5.47422519       4.84914522         0.00000000       0.00000000       0.00000000          1
H         7.06211869      13.87860431       4.45094404         0.00000000       0.00000000       0.00000000          1
6
pbc=[F, F, F] list_num_par=6 frozen=false iter=229 energy=-0.08440810 Lattice="15.00000000 0.00000000 0.00000000 0.00000000 15.00000000 0.00000000 0.00000000 0.00000000 15.00000000" energy_frozen_part=0.00000000 Properties=species:S:1:pos:R:3:velocities:R:3:Z:I:1
H         7.14341781       2.89100202       6.60079952         0.00000000       0.00000000       0.00000000          1
H        11.45731313       0.13259229       2.07599825         0.00000000       0.00000000       0.00000000          1
H         9.56211993       4.93926545       6.35563881         0.00000000       0.00000000       0.00000000          1
H        13.75554174      14.83112082       0.89062969         0.00000000       0.00000000       0.00000000          1
H        13.71703356       6.87751823       6.85965440         0.00000000       0.00000000       0.00000000          1
H         0.52455587       8.36749138       4.64300285         0.00000000       0.00000000       0.00000000          1
6
pbc=[F, F, F] list_num_par=6 frozen=false iter=239 energy=-0.08913832 Lattice="15.00000000 0.00000000 0.00000000 0.00000000 15.00000000 0.00000000 0.00000000 0.00000000 15.00000000" energy_frozen_part=0.00000000 Properties=species:S:1:pos:R:3:velocities:R:3:Z:I:1
H        14.25950543       1.57112790       7.80357370         0.00000000       0.00000000       0.00000000          1
H         4.99628535       3.69177837       9.60306223         0.00000000       0.00000000       0.00000000          1
H         7.55934571       3.08854548       9.32946505         0.00000000       0.00000000       0.00000000          1
H         8.78913173      13.12224116      10.86049677         0.00000000       0.00000000       0.00000000          1
H         8.76356262       9.57287106       1.22276100         0.00000000       0.00000000       0.00000000          1
H        13.38690953      11.76195356       9.42420416         0.00000000       0.00000000       0.00000000          1
6
pbc=[F, F, F] list_num_par=6 frozen=false iter=249 energy=-0.09406072 Lattice="15.00000000 0.00000000 0.00000000 0.00000000 15.00000000 0.00000000 0.00000000 0.00000000 15.00000000" energy_frozen_part=0.00000000 Properties=species:S:1:pos:R:3:velocities:R:3:Z:I:1
H         2.97287231       6.73167511       0.09572051         0.00000000       0.00000000       0.00000000          1
H         1.58394430       9.70833025       3.83493090         0.00000000       0.00000000       0.00000000          1
H        13.01865509      12.99124360       1.80506972         0.00000000       0.00000000       0.00000000          1
H         4.70013283       9.18693312       3.72450520         0.00000000       0.00000000       0.00000000          1
H         4.99328977      10.49348543      13.81860216         0.00000000       0.00000000       0.00000000          1
H         2.33882085      12.59491208       9.43383074         0.00000000       0.00000000       0.00000000          1
6
pbc=[F, F, F] list_num_par=6 frozen=false iter=259 energy=-0.09560543 Lattice="15.00000000 0.00000000 0.00000000 0.00000000 15.00000000 0.00000000 0.00000000 0.00000000 15.00000000" energy_frozen_part=0.00000000 Properties=species:S:1:pos:R:3:velocities:R:3:Z:I:1
H        11.39797234       4.89453397       0.38282431         0.00000000       0.00000000       0.00000000          1
H        11.27731029       8.94173608       4.42585195         0.00000000       0.00000000       0.00000000          1
H         0.91493812       9.44448166       9.60113023         0.00000000       0.00000000       0.00000000          1
H         4.65660309      13.33469216      12.19569611         0.00000000       0.00000000       0.00000000          1
H         2.45773390       5.40829474       8.97027528         0.00000000       0.00000000       0.00000000          1
H         9.85357853       6.76422982       4.32697237         0.00000000       0.00000000       0.00000000          1
6
pbc=[F, F, F] list_num_par=6 frozen=false iter=269 energy=-0.09897709 Lattice="15.00000000 0.00000000 0.00000000 0.00000000 15.00000000 0.00000000 0.00000000 0.00000000 15.00000000" energy_frozen_part=0.00000000 Properties=species:S:1:pos:R:3:velocities:R:3:Z:I:1
H         5.47292512      10.55388008      10.47765929         0.00000000       0.00000000       0.00000000          1
H         8.45393501       0.97286577      10.83575244         0.00000000       0.00000000       0.00000000          1
H         7.37681693       9.15707813      11.46129145         0.00000000       0.00000000       0.00000000          1
H         0.49813540      12.71545229       8.09915041         0.00000000       0.00000000       0.00000000          1
H         9.01979919      11.46335401       8.89738179         0.00000000       0.00000000       0.00000000          1
H         6.01647604       4.30742794       2.17157428         0.00000000       0.00000000       0.00000000          1
6
pbc=[F, F, F] list_num_par=6 frozen=false iter=279 energy=-0.10212448 Lattice="15.00000000 0.00000000 0.00000000 0.00000000 15.00000000 0.00000000 0.00000000 0.00000000 15.00000000" energy_frozen_part=0.00000000 Properties=species:S:1:pos:R:3:velocities:R:3:Z:I:1
H        10.57210344      11.71051700       6.98932347         0.00000000       0.00000000       0.00000000          1
H         4.68395159      14.95240458      14.88680124         0.00000000       0.00000000       0.00000000          1
H        10.62356527      11.27814336      14.11857983         0.00000000       0.00000000       0.00000000          1
H         6.49209569       5.20021010      10.20174414         0.00000000       0.00000000       0.00000000          1
H        12.37794361       2.56511935      14.14228694         0.00000000       0.00000000       0.00000000          1
H        12.68749554      13.18022430       5.92521396         0.00000000       0.00000000       0.00000000          1
6
pbc=[F, F, F] list_num_par=6 frozen=false iter=289 energy=-0.10487870 Lattice="15.00000000 0.00000000 0.00000000 0.00000000 15.00000000 0.00000000 0.00000000 0.00000000 15.00000000" energy_frozen_part=0.00000000 Properties=species:S:1:pos:R:3:velocities:R:3:Z:I:1
H         1.30471305       3.61106049      11.61473107         0.00000000       0.00000000       0.00000000          1
H        10.68414214       7.94107058       4.40391478         0.00000000       0.00000000       0.00000000          1
H         2.97216379       5.57421344      10.55633134         0.00000000       0.00000000       0.00000000          1
H         4.42859947      14.26527414      14.66442752         0.00000000       0.00000000       0.00000000          1
H         7.81002776       4.14480870      13.20369957         0.00000000       0.00000000       0.00000000          1
H         3.93385676      14.06904200       8.32357228         0.00000000       0.00000000       0.00000000          1
6
pbc=[F, F, F] list_num_par=6 frozen=false iter=299 energy=-0.10761235 Lattice="15.00000000 0.00000000 0.00000000 0.00000000 15.00000000 0.00000000 0.00000000 0.00000000 15.00000000" energy_frozen_part=0.00000000 Properties=species:S:1:pos:R:3:velocities:R:3:Z:I:1
H        10.01524640       3.57450313       4.33995228         0.00000000       0.00000000       0.00000000          1
H        14.77951442      13.42041873       5.02702825         0.00000000       0.00000000       0.00000000          1
H         2.13943843       5.95452411       5.88600029         0.00000000       0.00000000       0.00000000          1
H        10.83236846      14.10048011      13.04092574         0.00000000       0.00000000       0.00000000          1
H         1.16611506       8.14304771       7.42688020         0.00000000       0.00000000       0.00000000          1
H        10.13464844       6.44141553       8.18768150         0.00000000       0.00000000       0.00000000          1
6
pbc=[F, F, F] list_num_par=6 frozen=false iter=309 energy=-0.11007407 Lattice="15.00000000 0.00000000 0.00000000 0.00000000 15.00000000 0.00000000 0.00000000 0.00000000 15.00000000" energy_frozen_part=0.00000000 Properties=species:S:1:pos:R:3:velocities:R:3:Z:I:1
H         6.71667254       4.94776534      12.26984016         0.00000000       0.00000000       0.00000000          1
H         5.02458190      13.83954460       4.47189697         0.00000000       0.00000000       0.00000000          1