6
pbc=[F, F, F] list_num_par=6 frozen=false iter=9 energy=69.98925518 Lattice="15.00000000 0.00000000 0.00000000 0.00000000 15.00000000 0.00000000 0.00000000 0.00000000 15.00000000" energy_frozen_part=0.00000000 Properties=species:S:1:pos:R:3:velocities:R:3:Z:I:1
H        11.09818672       3.55400452       8.59728411         0.00000000       0.00000000       0.00000000          1
H         6.24979159       6.43455599       4.37253382         0.00000000       0.00000000       0.00000000          1
H        14.82949646      10.50614596      14.13933464         0.00000000       0.00000000       0.00000000          1
H         6.91257266       7.45294347       5.43696116         0.00000000       0.00000000       0.00000000          1
H         2.28213046       7.56861299      13.67679387         0.00000000       0.00000000       0.00000000          1
H        10.98554800       6.06069955       5.22741376         0.00000000       0.00000000       0.00000000          1
6
pbc=[F, F, F] list_num_par=6 frozen=false iter=19 energy=5.90887784 Lattice="15.00000000 0.00000000 0.00000000 0.00000000 15.00000000 0.00000000 0.00000000 0.00000000 15.00000000" energy_frozen_part=0.00000000 Properties=species:S:1:pos:R:3:velocities:R:3:Z:I:1
H         5.37418715       5.29268996      10.78424308         0.00000000       0.00000000       0.00000000          1
H         5.83868459       0.21410827      11.53251175         0.00000000       0.00000000       0.00000000          1
H        14.43132580       5.05894018       8.44811472         0.00000000       0.00000000       0.00000000          1
H         1.62723951       6.26988035       8.88571833         0.00000000       0.00000000       0.00000000          1
H         6.11085330       6.81061504      11.76833451         0.00000000       0.00000000       0.00000000          1
H         6.93192309       1.57938709      14.80211895         0.00000000       0.00000000       0.00000000          1
6
pbc=[F, F, F] list_num_par=6 frozen=false iter=29 energy=1.16858788 Lattice="15.00000000 0.00000000 0.00000000 0.00000000 15.00000000 0.00000000 0.00000000 0.00000000 15.00000000" energy_frozen_part=0.00000000 Properties=species:S:1:pos:R:3:velocities:R:3:Z:I:1
H         1.52305417       2.59031817      11.71668427         0.00000000       0.00000000       0.00000000          1
H         6.66188886      14.77199422       3.43142802         0.00000000       0.00000000       0.00000000          1
H        11.52009408       3.13229323       4.09236330         0.00000000       0.00000000       0.00000000          1
H         0.19368083       7.69845204       6.18475420         0.00000000       0.00000000       0.00000000          1
H         9.99928099      14.73790467       6.93980874         0.00000000       0.00000000       0.00000000          1
H         6.73281354      14.65570111       5.60049796         0.00000000       0.00000000       0.00000000          1
6
pbc=[F, F, F] list_num_par=6 frozen=false iter=39 energy=0.01135898 Lattice="15.00000000 0.00000000 0.00000000 0.00000000 15.00000000 0.00000000 0.00000000 0.00000000 15.00000000" energy_frozen_part=0.00000000 Properties=species:S:1:pos:R:3:velocities:R:3:Z:I:1
H         5.07313241      12.11380243      11.81923227         0.00000000       0.00000000       0.00000000          1
H        13.23696106       4.11589229      13.92066196         0.00000000       0.00000000       0.00000000          1
H         6.39667446      14.63989780       0.24448645         0.00000000       0.00000000       0.00000000          1
H         3.89770910      13.61081300      10.21595236         0.00000000       0.00000000       0.00000000          1
H         8.53676107       1.41538796       1.26415689         0.00000000       0.00000000       0.00000000          1
H         4.52745460       3.58691174       9.56784612         0.00000000       0.00000000       0.00000000          1
6
pbc=[F, F, F] list_num_par=6 frozen=false iter=49 energy=-0.00376376 Lattice="15.00000000 0.00000000 0.00000000 0.00000000 15.00000000 0.00000000 0.00000000 0.00000000 15.00000000" energy_frozen_part=0.00000000 Properties=species:S:1:pos:R:3:velocities:R:3:Z:I:1
H         3.99021464       7.92503577      14.67915989         0.00000000       0.00000000       0.00000000          1
H         7.13295195       9.04393596       4.87726678         0.00000000       0.00000000       0.00000000          1
H         8.67309857       2.45290421       7.60076337         0.00000000       0.00000000       0.00000000          1
H         1.85871371       2.22670334       9.20551763         0.00000000       0.00000000       0.00000000          1
H        14.64605920       1.15778090      14.24923679         0.00000000       0.00000000       0.00000000          1
H         9.78725545       9.22170608      14.03034974         0.00000000       0.00000000       0.00000000          1
6
pbc=[F, F, F] list_num_par=6 frozen=false iter=59 energy=-0.00651021 Lattice="15.00000000 0.00000000 0.00000000 0.00000000 15.00000000 0.00000000 0.00000000 0.00000000 15.00000000" energy_frozen_part=0.00000000 Properties=species:S:1:pos:R:3:velocities:R:3:Z:I:1
H         4.85349014      13.78406620       8.25212982         0.00000000       0.00000000       0.00000000          1
H         8.27904118       4.39646264       0.16372708         0.00000000       0.00000000       0.00000000          1
H        11.47439756      12.50333861      13.34513926         0.00000000       0.00000000       0.00000000          1
H         6.19409485      11.93721127       3.82590541         0.00000000       0.00000000       0.00000000          1
H        14.24617908       2.83790825      14.75644062         0.00000000       0.00000000       0.00000000          1
H         0.65110656       4.73800473      11.66777115         0.00000000       0.00000000       0.00000000          1
6
pbc=[F, F, F] list_num_par=6 frozen=false iter=69 energy=-0.00899801 Lattice="15.00000000 0.00000000 0.00000000 0.00000000 15.00000000 0.00000000 0.00000000 0.00000000 15.00000000" energy_frozen_part=0.00000000 Properties=species:S:1:pos:R:3:velocities:R:3:Z:I:1
H        14.48318702      11.03393881      13.28248060         0.00000000       0.00000000       0.00000000          1
H         5.04232001       3.78116571      10.61563224         0.00000000       0.00000000       0.00000000          1
H        14.15374353       4.28251175       7.42319696         0.00000000       0.00000000       0.00000000          1
H        14.15365904       9.40881746       6.29854193         0.00000000       0.00000000       0.00000000          1
H         7.00805586       0.64344125       1.30573304         0.00000000       0.00000000       0.00000000          1
H        10.09847834       5.33286683       1.10357948         0.00000000       0.00000000       0.00000000          1
6
pbc=[F, F, F] list_num_par=6 frozen=false iter=79 energy=-0.01278913 Lattice="15.00000000 0.00000000 0.00000000 0.00000000 15.00000000 0.00000000 0.00000000 0.00000000 15.00000000" energy_frozen_part=0.00000000 Properties=species:S:1:pos:R:3:velocities:R:3:Z:I:1
H         1.51292715       9.96007174       4.83318346         0.00000000       0.00000000       0.00000000          1
H        14.42620947       6.01183772       0.26017668         0.00000000       0.00000000       0.00000000          1
H         8.99559955       7.91313378       2.65381033         0.00000000       0.00000000       0.00000000          1
H         2.29363143       2.82221870       0.51458025         0.00000000       0.00000000       0.00000000          1
H         9.92887711       9.72561688       7.22123494         0.00000000       0.00000000       0.00000000          1
H        14.24078834       1.12338769       2.29428556         0.00000000       0.00000000       0.00000000          1
6
pbc=[F, F, F] list_num_par=6 frozen=false iter=89 energy=-0.01501831 Lattice="15.00000000 0.00000000 0.00000000 0.00000000 15.00000000 0.00000000 0.00000000 0.00000000 15.00000000" energy_frozen_part=0.00000000 Properties=species:S:1:pos:R:3:velocities:R:3:Z:I:1
H         3.18988467       7.49989189       2.79989962         0.00000000       0.00000000       0.00000000          1
H         7.91905658       7.65490356       3.90050746         0.00000000       0.00000000       0.00000000          1
H         0.54760120      10.40025102       5.83510988         0.00000000       0.00000000       0.00000000          1
H         3.15992263       8.23578546      11.75798629         0.00000000       0.00000000       0.00000000          1
H        14.61921909       5.04242735       9.43964740         0.00000000       0.00000000       0.00000000          1
H         0.69191959       0.12815592       9.99448278         0.00000000       0.00000000       0.00000000          1
6
pbc=[F, F, F] list_num_par=6 frozen=false iter=99 energy=-0.01794354 Lattice="15.00000000 0.00000000 0.00000000 0.00000000 15.00000000 0.00000000 0.00000000 0.00000000 15.00000000" energy_frozen_part=0.00000000 Properties=species:S:1:pos:R:3:velocities:R:3:Z:I:1
H         6.25944982      13.83549839       2.69577363         0.00000000       0.00000000       0.00000000          1
H         3.24115817       9.59824914       9.37109462         0.00000000       0.00000000       0.00000000          1
H         7.61791621       7.17792904      13.90334366         0.00000000       0.00000000       0.00000000          1
H         5.69568162       7.56436226       2.37663530         0.00000000       0.00000000       0.00000000          1
H         4.06106590       5.29534143       6.23234846         0.00000000       0.00000000       0.00000000          1
H         0.52714979      10.71497484       1.07909887         0.00000000       0.00000000       0.00000000          1
6
pbc=[F, F, F] list_num_par=6 frozen=false iter=109 energy=-0.02234672 Lattice="15.00000000 0.00000000 0.00000000 0.00000000 15.00000000 0.00000000 0.00000000 0.00000000 15.00000000" energy_frozen_part=0.00000000 Properties=species:S:1:pos:R:3:velocities:R:3:Z:I:1
H        13.51392183      11.82226662       2.54573030         0.00000000       0.00000000       0.00000000          1
H         9.01155691       6.42656559      11.13439459         0.00000000       0.00000000       0.00000000          1
H         1.28944539      10.16938121       9.04302749         0.00000000       0.00000000       0.00000000          1
H         2.03709816      12.61216586      13.73318124         0.00000000       0.00000000       0.00000000          1
H         5.77711640      10.38375289      12.05744513         0.00000000       0.00000000       0.00000000          1
H        14.55040772       1.98202908       8.52712400         0.00000000       0.00000000       0.00000000          1
6
pbc=[F, F, F] list_num_par=6 frozen=false iter=119 energy=-0.02500050 Lattice="15.00000000 0.00000000 0.00000000 0.00000000 15.00000000 0.00000000 0.00000000 0.00000000 15.00000000" energy_frozen_part=0.00000000 Properties=species:S:1:pos:R:3:velocities:R:3:Z:I:1
H         1.87222920       0.76337202       7.28339879         0.00000000       0.00000000       0.00000000          1
H         4.13039871       7.29487019       5.04229384         0.00000000       0.00000000       0.00000000          1
H         4.90625797      13.50306588       3.44337100         0.00000000       0.00000000       0.00000000          1
H         9.56893031       3.96443001       2.66008161         0.00000000       0.00000000       0.00000000          1
H        13.62808507      12.34183047       2.85760249         0.00000000       0.00000000       0.00000000          1
H         2.45917455       8.68648409       1.56160538         0.00000000       0.00000000       0.00000000          1
6
pbc=[F, F, F] list_num_par=6 frozen=false iter=129 energy=-0.02996131 Lattice="15.00000000 0.00000000 0.00000000 0.00000000 15.00000000 0.00000000 0.00000000 0.00000000 15.00000000" energy_frozen_part=0.00000000 Properties=species:S:1:pos:R:3:velocities:R:3:Z:I:1
H        13.89603588      13.15104033       0.15712864         0.00000000       0.00000000       0.00000000          1
H         9.18189590       5.40805289      11.54277635         0.00000000       0.00000000       0.00000000          1
H         2.00101410      11.03701187      12.50287476         0.00000000       0.00000000       0.00000000          1
H         5.80631470       8.81047804      14.37849752         0.00000000       0.00000000       0.00000000          1
H         5.22075235      10.37704809       9.40728395         0.00000000       0.00000000       0.00000000          1
H        12.40430705       8.90449379       7.66565116         0.00000000       0.00000000       0.00000000          1
6
pbc=[F, F, F] list_num_par=6 frozen=false iter=139 energy=-0.03804127 Lattice="15.00000000 0.00000000 0.00000000 0.00000000 15.00000000 0.00000000 0.00000000 0.00000000 15.00000000" energy_frozen_part=0.00000000 Properties=species:S:1:pos:R:3:velocities:R:3:Z:I:1
H         1.39892635       9.38403993      13.77220224         0.00000000       0.00000000       0.00000000          1
H        14.42398570       8.27101860       4.62482190         0.00000000       0.00000000       0.00000000          1
H         7.27932173       6.61330541      14.16440173         0.00000000       0.00000000       0.00000000          1
H         1.20505269       5.73823860       5.15201318         0.00000000       0.00000000       0.00000000          1
H         3.92085987       9.85601393      10.91795997         0.00000000       0.00000000       0.00000000          1
H         1.68823581       3.90296652      11.04216819         0.00000000       0.00000000       0.00000000          1
6
pbc=[F, F, F] list_num_par=6 frozen=false iter=149 energy=-0.04220788 Lattice="15.00000000 0.00000000 0.00000000 0.00000000 15.00000000 0.00000000 0.00000000 0.00000000 15.00000000" energy_frozen_part=0.00000000 Properties=species:S:1:pos:R:3:velocities:R:3:Z:I:1
H         1.56073672       8.53730518       2.69262332         0.00000000       0.00000000       0.00000000          1
H         0.64392529       7.47360003       8.42284326         0.00000000       0.00000000       0.00000000          1
H         4.83282097       8.24791184       5.77684352         0.00000000       0.00000000       0.00000000          1
H        14.97752493       9.41626589      12.11015237         0.00000000       0.00000000       0.00000000          1
H        14.94878815      14.72540829       3.90157960         0.00000000       0.00000000       0.00000000          1
H        12.83526810      12.44317283       6.44210387         0.00000000       0.00000000       0.00000000          1
6
pbc=[F, F, F] list_num_par=6 frozen=false iter=159 energy=-0.04981079 Lattice="15.00000000 0.00000000 0.00000000 0.00000000 15.00000000 0.00000000 0.00000000 0.00000000 15.00000000" energy_frozen_part=0.00000000 Properties=species:S:1:pos:R:3:velocities:R:3:Z:I:1
H        13.48815092      12.72437006      12.01159808         0.00000000       0.00000000       0.00000000          1
H        12.11333278       3.64006876       3.52743593         0.00000000       0.00000000       0.00000000          1
H         1.52771664       7.62014048      10.43145329         0.00000000       0.00000000       0.00000000          1
H         8.85169548       9.53260167      10.46585516         0.00000000       0.00000000       0.00000000          1
H         5.70099258      13.91479642       5.61794581         0.00000000       0.00000000       0.00000000          1
H         8.83170729       2.75527590       4.34348192         0.00000000       0.00000000       0.00000000          1
6
pbc=[F, F, F] list_num_par=6 frozen=false iter=169 energy=-0.05486733 Lattice="15.00000000 0.00000000 0.00000000 0.00000000 15.00000000 0.00000000 0.00000000 0.00000000 15.00000000" energy_frozen_part=0.00000000 Properties=species:S:1:pos:R:3:velocities:R:3:Z:I:1
H        13.73532130      10.27526485      10.54693957         0.00000000       0.00000000       0.00000000          1
H         5.13524434       0.45125407      10.55246797         0.00000000       0.00000000       0.00000000          1
H         7.39172580       3.98612389       2.65337941         0.00000000       0.00000000       0.00000000          1
H        12.75544980      10.36175651       6.74481272         0.00000000       0.00000000       0.00000000          1
H        10.23753798       9.21606905       2.43091717         0.00000000       0.00000000       0.00000000          1
H         5.79727549       0.54791244       1.39192189         0.00000000       0.00000000       0.00000000          1
6
pbc=[F, F, F] list_num_par=6 frozen=false iter=179 energy=-0.05998175 Lattice="15.00000000 0.00000000 0.00000000 0.00000000 15.00000000 0.00000000 0.00000000 0.00000000 15.00000000" energy_frozen_part=0.00000000 Properties=species:S:1:pos:R:3:velocities:R:3:Z:I:1
H        10.38228412      11.86710358      11.65565619         0.00000000       0.00000000       0.00000000          1
H         7.34973773       0.87257305      14.09462250         0.00000000       0.00000000       0.00000000          1
H        12.47769980      14.75144127       6.93418226         0.00000000       0.00000000       0.00000000          1
H        10.58088184      10.09726343       2.93186953         0.00000000       0.00000000       0.00000000          1
H        10.56925566      14.84426364       3.62592563         0.00000000       0.00000000       0.00000000          1
H         7.31359367       7.85142709       4.00860001         0.00000000       0.00000000       0.00000000          1
6
pbc=[F, F, F] list_num_par=6 frozen=false iter=189 energy=-0.06659711 Lattice="15.00000000 0.00000000 0.00000000 0.00000000 15.00000000 0.00000000 0.00000000 0.00000000 15.00000000" energy_frozen_part=0.00000000 Properties=species:S:1:pos:R:3:velocities:R:3:Z:I:1
H         3.28590093      13.27711816       7.52534070         0.00000000       0.00000000       0.00000000          1
H        13.54079074       0.85726897       1.12342495         0.00000000       0.00000000       0.00000000          1
H         9.40845853      13.81584593      13.77624339         0.00000000       0.00000000       0.00000000          1
H         4.41195829      11.17475732       5.32891167         0.00000000       0.00000000       0.00000000          1
H        13.17455942       1.94004614       9.90737012         0.00000000       0.00000000       0.00000000          1
H         4.47322640       2.92561970      12.35383332         0.00000000       0.00000000       0.00000000          1
6
pbc=[F, F, F] list_num_par=6 frozen=false iter=199 energy=-0.07106669 Lattice="15.00000000 0.00000000 0.00000000 0.00000000 15.00000000 0.00000000 0.00000000 0.00000000 15.00000000" energy_frozen_part=0.00000000 Properties=species:S:1:pos:R:3:velocities:R:3:Z:I:1
H         0.74335235       0.24866465       6.14897813         0.00000000       0.00000000       0.00000000          1
H         0.26532470       4.90751180       7.87929041         0.00000000       0.00000000       0.00000000          1
H        10.51177426       7.95229914       6.85810869         0.00000000       0.00000000       0.00000000          1
H        10.48320117       5.86202430       9.39487943         0.00000000       0.00000000       0.00000000          1
H         1.42511643       2.58235479      14.70593979         0.00000000       0.00000000       0.00000000          1
H         0.09379253       5.46746185       1.47517610         0.00000000       0.00000000       0.00000000          1
6
pbc=[F, F, F] list_num_par=6 frozen=false iter=209 energy=-0.07934294 Lattice="15.00000000 0.00000000 0.00000000 0.00000000 15.00000000 0.00000000 0.00000000 0.00000000 15.00000000" energy_frozen_part=0.00000000 Properties=species:S:1:pos:R:3:velocities:R:3:Z:I:1
H        14.49568355      12.07944407      10.99936498         0.00000000       0.00000000       0.00000000          1
H         5.49959779       3.35379808       1.17129674         0.00000000       0.00000000       0.00000000          1
H         5.01341160       6.28878408       0.19037943         0.00000000       0.00000000       0.00000000          1
H         8.62370632      10.71676185      11.11977694         0.00000000       0.00000000       0.00000000          1
H         3.84678836      12.74808980       2.32218229         0.00000000       0.00000000       0.00000000          1
H        14.77606094       2.17657796       2.82875203         0.00000000       0.00000000       0.00000000          1
6
pbc=[F, F, F] list_num_par=6 frozen=false iter=219 energy=-0.08200444 Lattice="15.00000000 0.00000000 0.00000000 0.00000000 15.00000000 0.00000000 0.00000000 0.00000000 15.00000000" energy_frozen_part=0.00000000 Properties=species:S:1:pos:R:3:velocities:R:3:Z:I:1
H        13.77707007      13.29701659       9.50682364         0.00000000       0.00000000       0.00000000          1
H         2.96703517       5.30145006      13.54887554         0.00000000       0.00000000       0.00000000          1
H        11.40111853       2.95876745       1.69094232         0.00000000       0.00000000       0.00000000          1
H        11.96197370      10.84711782       4.59979129         0.00000000       0.00000000       0.00000000          1
H        14.03706172       9.29633965       5.04536515         0.00000000       0.00000000       0.00000000          1
H         2.69973286       1.15265082       1.43647930         0.00000000       0.00000000       0.00000000          1
6
pbc=[F, F, F] list_num_par=6 frozen=false iter=229 energy=-0.08646927 Lattice="15.00000000 0.00000000 0.00000000 0.00000000 15.00000000 0.00000000 0.00000000 0.00000000 15.00000000" energy_frozen_part=0.00000000 Properties=species:S:1:pos:R:3:velocities:R:3:Z:I:1
H         0.14098982      10.87648410      10.69428682         0.00000000       0.00000000       0.00000000          1
H         9.71794983       1.23093458       8.63418419         0.00000000       0.00000000       0.00000000          1
H        11.83088152       5.51686112       9.50573025         0.00000000       0.00000000       0.00000000          1
H         4.08045460       9.62517265      12.30416825         0.00000000       0.00000000       0.00000000          1
H         3.41300145      12.60878232      10.16406111         0.00000000       0.00000000       0.00000000          1
H         1.64073236      10.00953210       3.99806668         0.00000000       0.00000000       0.00000000          1
6
pbc=[F, F, F] list_num_par=6 frozen=false iter=239 energy=-0.09296454 Lattice="15.00000000 0.00000000 0.00000000 0.00000000 15.00000000 0.00000000 0.00000000 0.00000000 15.00000000" energy_frozen_part=0.00000000 Properties=species:S:1:pos:R:3:velocities:R:3:Z:I:1
H         6.46772230       3.67232664      11.31836901         0.00000000       0.00000000       0.00000000          1
H         2.13694764      10.60278531       3.58908236         0.00000000       0.00000000       0.00000000          1
H         4.12907098      11.94146991       6.59759512         0.00000000       0.00000000       0.00000000          1
H         1.73751928       9.69516650      10.53431637         0.00000000       0.00000000       0.00000000          1
H         9.38579401       4.79314949       3.54960348         0.00000000       0.00000000       0.00000000          1
H         4.76002073       7.94268376      10.63733503         0.00000000       0.00000000       0.00000000          1
6
pbc=[F, F, F] list_num_par=6 frozen=false iter=249 energy=-0.09633687 Lattice="15.00000000 0.00000000 0.00000000 0.00000000 15.00000000 0.00000000 0.00000000 0.00000000 15.00000000" energy_frozen_part=0.00000000 Properties=species:S:1:pos:R:3:velocities:R:3:Z:I:1
H         3.41472871      13.70516521       5.23061720         0.00000000       0.00000000       0.00000000          1
H         4.03102948      13.12049300      14.26468518         0.00000000       0.00000000       0.00000000          1
H        11.62782529      13.96889752       6.89883733         0.00000000       0.00000000       0.00000000          1
H         6.93988951       6.67416028       3.56817571         0.00000000       0.00000000       0.00000000          1
H         0.85106975      11.40807601       8.71669809         0.00000000       0.00000000       0.00000000          1
H         5.71750527      12.71132448       4.36358852         0.00000000       0.00000000       0.00000000          1
6
pbc=[F, F, F] list_num_par=6 frozen=false iter=259 energy=-0.09940084 Lattice="15.00000000 0.00000000 0.00000000 0.00000000 15.00000000 0.00000000 0.00000000 0.00000000 15.00000000" energy_frozen_part=0.00000000 Properties=species:S:1:pos:R:3:velocities:R:3:Z:I:1
H        12.69885351      13.05358853      10.94982620         0.00000000       0.00000000       0.00000000          1
H         1.41898802      12.77020421      11.88206701         0.00000000       0.00000000       0.00000000          1
H         2.66389141      11.56683025       3.49223328         0.00000000       0.00000000       0.00000000          1
H        14.99195988       2.91630324       8.30101264         0.00000000       0.00000000       0.00000000          1
H         2.57141970       1.23036310       9.33703517         0.00000000       0.00000000       0.00000000          1
H         3.82065078      13.97757286       4.49274413         0.00000000       0.00000000       0.00000000          1
6
pbc=[F, F, F] list_num_par=6 frozen=false iter=269 energy=-0.10145180 Lattice="15.00000000 0.00000000 0.00000000 0.00000000 15.00000000 0.00000000 0.00000000 0.00000000 15.00000000" energy_frozen_part=0.00000000 Properties=species:S:1:pos:R:3:velocities:R:3:Z:I:1
H         5.45214780       7.53650705       6.13510321         0.00000000       0.00000000       0.00000000          1
H        11.06537912      10.67062676       1.39163521         0.00000000       0.00000000       0.00000000          1
H        13.03984367       6.61001736      13.54139974         0.00000000       0.00000000       0.00000000          1
H        14.63140903       2.45636966      10.95590141         0.00000000       0.00000000       0.00000000          1
H         7.60835235       9.57402421       5.26519625         0.00000000       0.00000000       0.00000000          1
H         7.93899523      12.45677074       8.88983970         0.00000000       0.00000000       0.00000000          1
6
pbc=[F, F, F] list_num_par=6 frozen=false iter=279 energy=-0.10299716 Lattice="15.00000000 0.00000000 0.00000000 0.00000000 15.00000000 0.00000000 0.00000000 0.00000000 15.00000000" energy_frozen_part=0.00000000 Properties=species:S:1:pos:R:3:velocities:R:3:Z:I:1
H        10.81558929       4.18601234      12.93174917         0.00000000       0.00000000       0.00000000          1
H        12.49010883       9.74036004       3.10789788         0.00000000       0.00000000       0.00000000          1
H         9.39946018       4.05799000       6.29775901         0.00000000       0.00000000       0.00000000          1
H        13.65210161       7.25280130       8.33551676         0.00000000       0.00000000       0.00000000          1
H         4.48157958       5.03705771       6.90028469         0.00000000       0.00000000       0.00000000          1
H        14.57257149      11.78228067       2.39024752         0.00000000       0.00000000       0.00000000          1
6
pbc=[F, F, F] list_num_par=6 frozen=false iter=289 energy=-0.10567412 Lattice="15.00000000 0.00000000 0.00000000 0.00000000 15.00000000 0.00000000 0.00000000 0.00000000 15.00000000" energy_frozen_part=0.00000000 Properties=species:S:1:pos:R:3:velocities:R:3:Z:I:1
H         3.04026003      14.38014446      11.54031441         0.00000000       0.00000000       0.00000000          1
H        12.04967868       2.50015235       8.12688337         0.00000000       0.00000000       0.00000000          1
H         7.38893032      13.14971678       8.62175555         0.00000000       0.00000000       0.00000000          1
H         0.97629149      13.97300243       9.70878840         0.00000000       0.00000000       0.00000000          1
H         3.57734114       6.38846074       0.82371269         0.00000000       0.00000000       0.00000000          1
H        11.56861823       5.68426310      14.11426604         0.00000000       0.00000000       0.00000000          1
6
pbc=[F, F, F] list_num_par=6 frozen=false iter=299 energy=-0.10822604 Lattice="15.00000000 0.00000000 0.00000000 0.00000000 15.00000000 0.00000000 0.00000000 0.00000000 15.00000000" energy_frozen_part=0.00000000 Properties=species:S:1:pos:R:3:velocities:R:3:Z:I:1
H         7.03020852       7.01053561      12.87322034         0.00000000       0.00000000       0.00000000          1
H        10.21390991       5.14318248       2.55466549         0.00000000       0.00000000       0.00000000          1
H         5.79085199      14.95126307       6.38213040         0.00000000       0.00000000       0.00000000          1
H         4.41569167      11.26038544       8.01478911         0.00000000       0.00000000       0.00000000          1
H         7.45437145       6.04334698       3.26915012         0.00000000       0.00000000       0.00000000          1
H        11.75409004      12.93984355       8.52612430         0.00000000       0.00000000       0.00000000          1
6
pbc=[F, F, F] list_num_par=6 frozen=false iter=309 energy=-0.10934061 Lattice="15.00000000 0.00000000 0.00000000 0.00000000 15.00000000 0.00000000 0.00000000 0.00000000 15.00000000" energy_frozen_part=0.00000000 Properties=species:S:1:pos:R:3:velocities:R:3:Z:I:1
H        11.07486404      14.19643026       0.15543086         0.00000000       0.00000000       0.00000000          1
H         6.09402790       8.19697341      11.51335116         0.00000000       0.00000000       0.00000000          1