6
pbc=[F, F, F] list_num_par=6 frozen=false iter=9 energy=4.22851701 Lattice="15.00000000 0.00000000 0.00000000 0.00000000 15.00000000 0.00000000 0.00000000 0.00000000 15.00000000" energy_frozen_part=0.00000000 Properties=species:S:1:pos:R:3:velocities:R:3:Z:I:1
H         7.25822806       8.03449414       5.40826036         0.00000000       0.00000000       0.00000000          1
H        13.97135387       5.48608412      12.65652300         0.00000000       0.00000000       0.00000000          1
H         0.62563137       2.60113958       5.25819905         0.00000000       0.00000000       0.00000000          1
H        10.87885027      12.60317595      14.22449064         0.00000000       0.00000000       0.00000000          1
H         9.98178396      13.15893437      12.52340844         0.00000000       0.00000000       0.00000000          1
H         7.35702453       3.45456258       5.14559730         0.00000000       0.00000000       0.00000000          1
6
pbc=[F, F, F] list_num_par=6 frozen=false iter=19 energy=0.27832368 Lattice="15.00000000 0.00000000 0.00000000 0.00000000 15.00000000 0.00000000 0.00000000 0.00000000 15.00000000" energy_frozen_part=0.00000000 Properties=species:S:1:pos:R:3:velocities:R:3:Z:I:1
H        12.75343516       9.21513812       7.26299812         0.00000000       0.00000000       0.00000000          1
H         8.17605845       1.86633605       1.28321984         0.00000000       0.00000000       0.00000000          1
H         3.54991378      10.22978898      12.85320709         0.00000000       0.00000000       0.00000000          1
H         1.80610852      11.66901100      13.45976848         0.00000000       0.00000000       0.00000000          1
H        13.01100572      13.16668465      12.81448597         0.00000000       0.00000000       0.00000000          1
H         7.53894838      13.51468069      11.10251937         0.00000000       0.00000000       0.00000000          1
6
pbc=[F, F, F] list_num_par=6 frozen=false iter=29 energy=-0.00336463 Lattice="15.00000000 0.00000000 0.00000000 0.00000000 15.00000000 0.00000000 0.00000000 0.00000000 15.00000000" energy_frozen_part=0.00000000 Properties=species:S:1:pos:R:3:velocities:R:3:Z:I:1
H        14.28914120       8.14958652      12.03530818         0.00000000       0.00000000       0.00000000          1
H        12.02411772       7.10297914       0.74449535         0.00000000       0.00000000       0.00000000          1
H         5.94493948      13.45695815       0.30296966         0.00000000       0.00000000       0.00000000          1
H         6.66219918       2.73529057       0.70792799         0.00000000       0.00000000       0.00000000          1
H         9.56359499      14.24677012       4.83588322         0.00000000       0.00000000       0.00000000          1
H         3.26575545       7.79640410      14.88472163         0.00000000       0.00000000       0.00000000          1
6
pbc=[F, F, F] list_num_par=6 frozen=false iter=39 energy=-0.00576771 Lattice="15.00000000 0.00000000 0.00000000 0.00000000 15.00000000 0.00000000 0.00000000 0.00000000 15.00000000" energy_frozen_part=0.00000000 Properties=species:S:1:pos:R:3:velocities:R:3:Z:I:1
H        14.92589241       5.94919661       6.23754216         0.00000000       0.00000000       0.00000000          1
H         2.35051083       4.55138039      12.85973145         0.00000000       0.00000000       0.00000000          1
H        12.63198387      10.36666253       9.57499678         0.00000000       0.00000000       0.00000000          1
H        13.72861348       0.02500163       0.24276635         0.00000000       0.00000000       0.00000000          1
H         8.02199142       6.01497594      10.96765345         0.00000000       0.00000000       0.00000000          1
H         2.36630011       1.57954003       5.88736718         0.00000000       0.00000000       0.00000000          1
6
pbc=[F, F, F] list_num_par=6 frozen=false iter=49 energy=-0.00971283 Lattice="15.00000000 0.00000000 0.00000000 0.00000000 15.00000000 0.00000000 0.00000000 0.00000000 15.00000000" energy_frozen_part=0.00000000 Properties=species:S:1:pos:R:3:velocities:R:3:Z:I:1
H        14.07271214       8.13352943      11.53295693         0.00000000       0.00000000       0.00000000          1
H         9.80794527      10.65725021      11.32901352         0.00000000       0.00000000       0.00000000          1
H         2.86367277       2.67749261       8.87752909         0.00000000       0.00000000       0.00000000          1
H         3.29711396       5.46870657       1.04424826         0.00000000       0.00000000       0.00000000          1
H         6.75422825       1.03094935       4.74474892         0.00000000       0.00000000       0.00000000          1
H         7.90183348      14.87778830       3.01418132         0.00000000       0.00000000       0.00000000          1
6
pbc=[F, F, F] list_num_par=6 frozen=false iter=59 energy=-0.01670999 Lattice="15.00000000 0.00000000 0.00000000 0.00000000 15.00000000 0.00000000 0.00000000 0.00000000 15.00000000" energy_frozen_part=0.00000000 Properties=species:S:1:pos:R:3:velocities:R:3:Z:I:1
H        12.13891495       8.41803064       1.44678921         0.00000000       0.00000000       0.00000000          1
H         2.65261763       2.65219068       3.73529901         0.00000000       0.00000000       0.00000000          1
H         7.07183127      12.10749728       3.23420834         0.00000000       0.00000000       0.00000000          1
H         4.03736979       1.37916888      14.26564295         0.00000000       0.00000000       0.00000000          1
H         2.16140298       6.56464415      13.75084052         0.00000000       0.00000000       0.00000000          1
H         4.86438210      10.62878479       6.81402597         0.00000000       0.00000000       0.00000000          1
6
pbc=[F, F, F] list_num_par=6 frozen=false iter=69 energy=-0.01913740 Lattice="15.00000000 0.00000000 0.00000000 0.00000000 15.00000000 0.00000000 0.00000000 0.00000000 15.00000000" energy_frozen_part=0.00000000 Properties=species:S:1:pos:R:3:velocities:R:3:Z:I:1
H         5.59657433      12.16564211      10.38556609         0.00000000       0.00000000       0.00000000          1
H        14.69625367      13.78665117       0.46742353         0.00000000       0.00000000       0.00000000          1
H         4.35505801       8.13025558      14.27689488         0.00000000       0.00000000       0.00000000          1
H        13.46519866      13.33547928       7.40655833         0.00000000       0.00000000       0.00000000          1
H        13.03803938       9.38245364      14.81212453         0.00000000       0.00000000       0.00000000          1
H        10.57710612      10.32958748       9.54395739         0.00000000       0.00000000       0.00000000          1
6
pbc=[F, F, F] list_num_par=6 frozen=false iter=79 energy=-0.02261689 Lattice="15.00000000 0.00000000 0.00000000 0.00000000 15.00000000 0.00000000 0.00000000 0.00000000 15.00000000" energy_frozen_part=0.00000000 Properties=species:S:1:pos:R:3:velocities:R:3:Z:I:1
H         4.16660060       9.16248828       3.23190464         0.00000000       0.00000000       0.00000000          1
H         3.32697942      11.51844336       7.29352334         0.00000000       0.00000000       0.00000000          1
H        10.95661302       4.39415911      14.43879010         0.00000000       0.00000000       0.00000000          1
H        14.27582411      12.62032428       3.52201313         0.00000000       0.00000000       0.00000000          1
H         7.79742254       5.51926768       4.79210013         0.00000000       0.00000000       0.00000000          1
H        13.92211744      11.78503848       5.86371006         0.00000000       0.00000000       0.00000000          1
6
pbc=[F, F, F] list_num_par=6 frozen=false iter=89 energy=-0.02681331 Lattice="15.00000000 0.00000000 0.00000000 0.00000000 15.00000000 0.00000000 0.00000000 0.00000000 15.00000000" energy_frozen_part=0.00000000 Properties=species:S:1:pos:R:3:velocities:R:3:Z:I:1
H         5.05044810       6.85553854      12.68228637         0.00000000       0.00000000       0.00000000          1
H         7.45654178       5.17916316       2.27413855         0.00000000       0.00000000       0.00000000          1
H         6.09115435       1.27663889       0.48763081         0.00000000       0.00000000       0.00000000          1
H         2.07256389       5.78809975       9.80512146         0.00000000       0.00000000       0.00000000          1
H        12.92831340       0.19156016       6.26986694         0.00000000       0.00000000       0.00000000          1
H         1.69612139      13.84269996       0.71841064         0.00000000       0.00000000       0.00000000          1
6
pbc=[F, F, F] list_num_par=6 frozen=false iter=99 energy=-0.03019994 Lattice="15.00000000 0.00000000 0.00000000 0.00000000 15.00000000 0.00000000 0.00000000 0.00000000 15.00000000" energy_frozen_part=0.00000000 Properties=species:S:1:pos:R:3:velocities:R:3:Z:I:1
H         7.06023130      13.97815413       3.88468906         0.00000000       0.00000000       0.00000000          1
H         7.61629497       7.36206992      14.65037797         0.00000000       0.00000000       0.00000000          1
H        11.20544199      12.89402323      12.65206835         0.00000000       0.00000000       0.00000000          1
H         4.48302087       3.78155589       4.17244351         0.00000000       0.00000000       0.00000000          1
H        13.05159773       8.81374520       4.27802258         0.00000000       0.00000000       0.00000000          1
H         7.03124797      13.28050192       7.67269458         0.00000000       0.00000000       0.00000000          1
6
pbc=[F, F, F] list_num_par=6 frozen=false iter=109 energy=-0.03460443 Lattice="15.00000000 0.00000000 0.00000000 0.00000000 15.00000000 0.00000000 0.00000000 0.00000000 15.00000000" energy_frozen_part=0.00000000 Properties=species:S:1:pos:R:3:velocities:R:3:Z:I:1
H         0.86267942       2.03762262       0.59051929         0.00000000       0.00000000       0.00000000          1
H         8.91761299      14.58089004      10.22740207         0.00000000       0.00000000       0.00000000          1
H         4.21381927      12.56220025       4.93870803         0.00000000       0.00000000       0.00000000          1
H         7.36712015       2.36440056       9.59006372         0.00000000       0.00000000       0.00000000          1
H        12.47591098       3.10627334       0.31281577         0.00000000       0.00000000       0.00000000          1
H        10.98972585       1.67904194       9.20882899         0.00000000       0.00000000       0.00000000          1
6
pbc=[F, F, F] list_num_par=6 frozen=false iter=119 energy=-0.04009413 Lattice="15.00000000 0.00000000 0.00000000 0.00000000 15.00000000 0.00000000 0.00000000 0.00000000 15.00000000" energy_frozen_part=0.00000000 Properties=species:S:1:pos:R:3:velocities:R:3:Z:I:1
H         4.32249006       6.04168833       3.54272978         0.00000000       0.00000000       0.00000000          1
H         2.39207420       0.49649595       9.02864426         0.00000000       0.00000000       0.00000000          1
H         3.09480166       2.67727636      14.91716529         0.00000000       0.00000000       0.00000000          1
H         0.62334101       3.78062079       8.81929555         0.00000000       0.00000000       0.00000000          1
H        12.16450724       5.49654623       5.01777853         0.00000000       0.00000000       0.00000000          1
H        12.98803338       9.43580835       8.66804747         0.00000000       0.00000000       0.00000000          1
6
pbc=[F, F, F] list_num_par=6 frozen=false iter=129 energy=-0.04394032 Lattice="15.00000000 0.00000000 0.00000000 0.00000000 15.00000000 0.00000000 0.00000000 0.00000000 15.00000000" energy_frozen_part=0.00000000 Properties=species:S:1:pos:R:3:velocities:R:3:Z:I:1
H         2.08431310       9.64240937       9.85044065         0.00000000       0.00000000       0.00000000          1
H         6.17910826      13.04530282       5.38705844         0.00000000       0.00000000       0.00000000          1
H         2.27700022      14.25280667      13.82734295         0.00000000       0.00000000       0.00000000          1
H         8.95331298       3.76912905       2.72360750         0.00000000       0.00000000       0.00000000          1
H        10.08077127       2.23169746      11.10574442         0.00000000       0.00000000       0.00000000          1
H         8.40780509       5.11710063       9.77130891         0.00000000       0.00000000       0.00000000          1
6
pbc=[F, F, F] list_num_par=6 frozen=false iter=139 energy=-0.05174592 Lattice="15.00000000 0.00000000 0.00000000 0.00000000 15.00000000 0.00000000 0.00000000 0.00000000 15.00000000" energy_frozen_part=0.00000000 Properties=species:S:1:pos:R:3:velocities:R:3:Z:I:1
H         9.94340177       3.58074626      11.90714758         0.00000000       0.00000000       0.00000000          1
H         1.29327142      13.79840387       9.40507784         0.00000000       0.00000000       0.00000000          1
H         3.91552601       7.89419090       6.31860701         0.00000000       0.00000000       0.00000000          1
H         9.02733578      14.32016411       4.37189892         0.00000000       0.00000000       0.00000000          1
H         3.52610157       9.52597983       9.66171544         0.00000000       0.00000000       0.00000000          1
H         7.69907261       8.04800661       3.58761704         0.00000000       0.00000000       0.00000000          1
6
pbc=[F, F, F] list_num_par=6 frozen=false iter=149 energy=-0.05645818 Lattice="15.00000000 0.00000000 0.00000000 0.00000000 15.00000000 0.00000000 0.00000000 0.00000000 15.00000000" energy_frozen_part=0.00000000 Properties=species:S:1:pos:R:3:velocities:R:3:Z:I:1
H         6.04012738       3.97002033      10.22421506         0.00000000       0.00000000       0.00000000          1
H         7.67547367      11.85869331      11.69518051         0.00000000       0.00000000       0.00000000          1
H         7.65279430      11.48044744       3.76072615         0.00000000       0.00000000       0.00000000          1
H        14.12075506      14.56534931      13.80421562         0.00000000       0.00000000       0.00000000          1
H         8.73656738       6.09176605       9.98280012         0.00000000       0.00000000       0.00000000          1
H         2.44329251      10.07932031       5.61621069         0.00000000       0.00000000       0.00000000          1
6
pbc=[F, F, F] list_num_par=6 frozen=false iter=159 energy=-0.06256841 Lattice="15.00000000 0.00000000 0.00000000 0.00000000 15.00000000 0.00000000 0.00000000 0.00000000 15.00000000" energy_frozen_part=0.00000000 Properties=species:S:1:pos:R:3:velocities:R:3:Z:I:1
H         6.13348925       6.59849808       8.94195907         0.00000000       0.00000000       0.00000000          1
H         7.15985307      11.14465613       6.09074645         0.00000000       0.00000000       0.00000000          1
H         3.33121119      10.75606781      14.34834777         0.00000000       0.00000000       0.00000000          1
H        11.43621487       5.86365316      12.75550522         0.00000000       0.00000000       0.00000000          1
H        10.88722305      14.18662220      10.69326401         0.00000000       0.00000000       0.00000000          1
H        11.35195306      11.14736081      12.21968264         0.00000000       0.00000000       0.00000000          1
6
pbc=[F, F, F] list_num_par=6 frozen=false iter=169 energy=-0.06846160 Lattice="15.00000000 0.00000000 0.00000000 0.00000000 15.00000000 0.00000000 0.00000000 0.00000000 15.00000000" energy_frozen_part=0.00000000 Properties=species:S:1:pos:R:3:velocities:R:3:Z:I:1
H        14.40714160       9.27102629       5.01062932         0.00000000       0.00000000       0.00000000          1
H         3.04949860       1.73294222       5.82792673         0.00000000       0.00000000       0.00000000          1
H         9.58459343       0.32638831      12.38552438         0.00000000       0.00000000       0.00000000          1
H         7.38330994      10.34585099       5.92223827         0.00000000       0.00000000       0.00000000          1
H         9.45041490       8.00694641       6.90795618         0.00000000       0.00000000       0.00000000          1
H         3.02033147       3.88234222      14.08166431         0.00000000       0.00000000       0.00000000          1
6
pbc=[F, F, F] list_num_par=6 frozen=false iter=179 energy=-0.07380442 Lattice="15.00000000 0.00000000 0.00000000 0.00000000 15.00000000 0.00000000 0.00000000 0.00000000 15.00000000" energy_frozen_part=0.00000000 Properties=species:S:1:pos:R:3:velocities:R:3:Z:I:1
H        13.80156527       6.56305899       2.14545136         0.00000000       0.00000000       0.00000000          1
H         3.77184655      12.70346864      11.52149522         0.00000000       0.00000000       0.00000000          1
H        12.23952937       7.34770518      12.79753638         0.00000000       0.00000000       0.00000000          1
H         1.22506928      14.39588592       1.20745854         0.00000000       0.00000000       0.00000000          1
H         6.40607160       7.94151094       3.19746270         0.00000000       0.00000000       0.00000000          1
H        11.19348016       5.69432788       3.80761780         0.00000000       0.00000000       0.00000000          1
6
pbc=[F, F, F] list_num_par=6 frozen=false iter=189 energy=-0.08098860 Lattice="15.00000000 0.00000000 0.00000000 0.00000000 15.00000000 0.00000000 0.00000000 0.00000000 15.00000000" energy_frozen_part=0.00000000 Properties=species:S:1:pos:R:3:velocities:R:3:Z:I:1
H        12.69156408       7.98126951       6.10584880         0.00000000       0.00000000       0.00000000          1
H        11.24726218      10.93942324       6.87242038         0.00000000       0.00000000       0.00000000          1
H         1.20591791       7.56220502       9.12356571         0.00000000       0.00000000       0.00000000          1
H         6.47168389      11.43005837      12.04434748         0.00000000       0.00000000       0.00000000          1
H         6.78164743       2.21125513       3.28654453         0.00000000       0.00000000       0.00000000          1
H        12.55986022       9.40375395      10.63155372         0.00000000       0.00000000       0.00000000          1
6
pbc=[F, F, F] list_num_par=6 frozen=false iter=199 energy=-0.08697462 Lattice="15.00000000 0.00000000 0.00000000 0.00000000 15.00000000 0.00000000 0.00000000 0.00000000 15.00000000" energy_frozen_part=0.00000000 Properties=species:S:1:pos:R:3:velocities:R:3:Z:I:1
H         3.36049922       2.14905782       5.74991988         0.00000000       0.00000000       0.00000000          1
H         9.58181857      14.62911618       5.35017668         0.00000000       0.00000000       0.00000000          1
H        12.37442831       8.03843809       4.13596982         0.00000000       0.00000000       0.00000000          1
H         7.90891776      11.36512417       8.28248913         0.00000000       0.00000000       0.00000000          1
H         2.16348314      10.87168233       5.27268236         0.00000000       0.00000000       0.00000000          1
H         9.22196974      12.46004354       3.98218176         0.00000000       0.00000000       0.00000000          1
6
pbc=[F, F, F] list_num_par=6 frozen=false iter=209 energy=-0.09167231 Lattice="15.00000000 0.00000000 0.00000000 0.00000000 15.00000000 0.00000000 0.00000000 0.00000000 15.00000000" energy_frozen_part=0.00000000 Properties=species:S:1:pos:R:3:velocities:R:3:Z:I:1
H         0.86302020       2.21051028      12.26317016         0.00000000       0.00000000       0.00000000          1
H        14.41164495       1.36685184       3.12023060         0.00000000       0.00000000       0.00000000          1
H         6.47470682       9.32979529       6.99528078         0.00000000       0.00000000       0.00000000          1
H         2.85967008       6.10376293      10.67045076         0.00000000       0.00000000       0.00000000          1
H         7.29931021       8.24987225       1.63057051         0.00000000       0.00000000       0.00000000          1
H         5.10801627      11.52289933       5.15442935         0.00000000       0.00000000       0.00000000          1
6
pbc=[F, F, F] list_num_par=6 frozen=false iter=219 energy=-0.09432397 Lattice="15.00000000 0.00000000 0.00000000 0.00000000 15.00000000 0.00000000 0.00000000 0.00000000 15.00000000" energy_frozen_part=0.00000000 Properties=species:S:1:pos:R:3:velocities:R:3:Z:I:1
H         0.49218005       9.07575760       0.98138073         0.00000000       0.00000000       0.00000000          1
H         8.34923529      11.04984502       9.51251076         0.00000000       0.00000000       0.00000000          1
H         6.83398040       1.05435806      14.27949421         0.00000000       0.00000000       0.00000000          1
H         7.56663968       2.54368867       5.47913931         0.00000000       0.00000000       0.00000000          1
H         8.67407299       9.61256558       1.76765305         0.00000000       0.00000000       0.00000000          1
H         9.86919270       1.75839904       7.15141237         0.00000000       0.00000000       0.00000000          1
6
pbc=[F, F, F] list_num_par=6 frozen=false iter=229 energy=-0.09834760 Lattice="15.00000000 0.00000000 0.00000000 0.00000000 15.00000000 0.00000000 0.00000000 0.00000000 15.00000000" energy_frozen_part=0.00000000 Properties=species:S:1:pos:R:3:velocities:R:3:Z:I:1
H         1.43719012       0.76011739       2.40108585         0.00000000       0.00000000       0.00000000          1
H        14.37989320       9.87076751       9.74811897         0.00000000       0.00000000       0.00000000          1
H         1.06410701      13.00104265      12.87164988         0.00000000       0.00000000       0.00000000          1
H        13.32429024       7.25187886       4.23475843         0.00000000       0.00000000       0.00000000          1
H        12.03605880       8.19741659      10.25150990         0.00000000       0.00000000       0.00000000          1
H         0.15197296      11.67208091       1.66285289         0.00000000       0.00000000       0.00000000          1
6
pbc=[F, F, F] list_num_par=6 frozen=false iter=239 energy=-0.10131355 Lattice="15.00000000 0.00000000 0.00000000 0.00000000 15.00000000 0.00000000 0.00000000 0.00000000 15.00000000" energy_frozen_part=0.00000000 Properties=species:S:1:pos:R:3:velocities:R:3:Z:I:1
H         1.19177499      11.30267965       9.54166761         0.00000000       0.00000000       0.00000000          1
H        14.95733484       5.46357080       9.33153630         0.00000000       0.00000000       0.00000000          1
H         5.07121963       8.11914467       6.81636241         0.00000000       0.00000000       0.00000000          1
H         5.97738303      10.48072890      10.04364372         0.00000000       0.00000000       0.00000000          1
H         2.57796649       2.33741390       4.31930633         0.00000000       0.00000000       0.00000000          1
H         4.62283342       8.41628041       9.83521804         0.00000000       0.00000000       0.00000000          1
6
pbc=[F, F, F] list_num_par=6 frozen=false iter=249 energy=-0.10367405 Lattice="15.00000000 0.00000000 0.00000000 0.00000000 15.00000000 0.00000000 0.00000000 0.00000000 15.00000000" energy_frozen_part=0.00000000 Properties=species:S:1:pos:R:3:velocities:R:3:Z:I:1
H         7.14729320       3.56094700       6.44207270         0.00000000       0.00000000       0.00000000          1
H        14.73092663       0.43100356       0.42100784         0.00000000       0.00000000       0.00000000          1
H         4.95462470       7.37197536      13.64717732         0.00000000       0.00000000       0.00000000          1
H         0.48911954      11.60779287       3.40641041         0.00000000       0.00000000       0.00000000          1
H         6.61740862       3.31775100       9.31614744         0.00000000       0.00000000       0.00000000          1
H         4.80525247       8.70788502       7.65240375         0.00000000       0.00000000       0.00000000          1
6
pbc=[F, F, F] list_num_par=6 frozen=false iter=259 energy=-0.10581554 Lattice="15.00000000 0.00000000 0.00000000 0.00000000 15.00000000 0.00000000 0.00000000 0.00000000 15.00000000" energy_frozen_part=0.00000000 Properties=species:S:1:pos:R:3:velocities:R:3:Z:I:1
H         2.90457620       0.98886820       6.98922991         0.00000000       0.00000000       0.00000000          1
H         8.72522577      11.21745490      12.81127201         0.00000000       0.00000000       0.00000000          1
H         6.65557785       7.20994278       0.14168968         0.00000000       0.00000000       0.00000000          1
H         8.12500406      13.53807402       7.41165991         0.00000000       0.00000000       0.00000000          1
H         7.74451016       4.74970440       9.57629622         0.00000000       0.00000000       0.00000000          1
H         8.83137644      14.94844356       9.62238955         0.00000000       0.00000000       0.00000000          1
6
pbc=[F, F, F] list_num_par=6 frozen=false iter=269 energy=-0.10941499 Lattice="15.00000000 0.00000000 0.00000000 0.00000000 15.00000000 0.00000000 0.00000000 0.00000000 15.00000000" energy_frozen_part=0.00000000 Properties=species:S:1:pos:R:3:velocities:R:3:Z:I:1
H        14.75431003       0.07969203      12.92720824         0.00000000       0.00000000       0.00000000          1
H         6.15748307       5.27184317       3.24578495         0.00000000       0.00000000       0.00000000          1
H         2.80260556      11.08244883       6.05687889         0.00000000       0.00000000       0.00000000          1
H        10.08672457       4.46068445       8.65563888         0.00000000       0.00000000       0.00000000          1
H         6.42676162       0.62284867       3.02565697         0.00000000       0.00000000       0.00000000          1
H         4.52398903      13.04522133       4.83734676         0.00000000       0.00000000       0.00000000          1
6
pbc=[F, F, F] list_num_par=6 frozen=false iter=279 energy=-0.11192918 Lattice="15.00000000 0.00000000 0.00000000 0.00000000 15.00000000 0.00000000 0.00000000 0.00000000 15.00000000" energy_frozen_part=0.00000000 Properties=species:S:1:pos:R:3:velocities:R:3:Z:I:1
H         0.44808457       8.07157222       7.56080979         0.00000000       0.00000000       0.00000000          1
H        12.29365652       4.30738799       6.61585304         0.00000000       0.00000000       0.00000000          1
H         6.12764956       3.35316577       7.55464163         0.00000000       0.00000000       0.00000000          1
H         5.83470749      11.03095685       7.26326017         0.00000000       0.00000000       0.00000000          1
H         5.75255007       2.37958633       2.60934058         0.00000000       0.00000000       0.00000000          1
H         1.50284270       9.14129281      10.01465762         0.00000000       0.00000000       0.00000000          1
6
pbc=[F, F, F] list_num_par=6 frozen=false iter=289 energy=-0.11465254 Lattice="15.00000000 0.00000000 0.00000000 0.00000000 15.00000000 0.00000000 0.00000000 0.00000000 15.00000000" energy_frozen_part=0.00000000 Properties=species:S:1:pos:R:3:velocities:R:3:Z:I:1
H         3.91109245       2.29534112      11.63346799         0.00000000       0.00000000       0.00000000          1
H        13.96419073       3.51832691       4.01060370         0.00000000       0.00000000       0.00000000          1
H         4.44173385      12.36708533       3.06981372         0.00000000       0.00000000       0.00000000          1
H         4.44748145       0.61209635      13.96743946         0.00000000       0.00000000       0.00000000          1
H         9.51488298       6.00648141       6.10080554         0.00000000       0.00000000       0.00000000          1
H         4.28581308       8.48408578       1.33764479         0.00000000       0.00000000       0.00000000          1
6
pbc=[F, F, F] list_num_par=6 frozen=false iter=299 energy=-0.11853915 Lattice="15.00000000 0.00000000 0.00000000 0.00000000 15.00000000 0.00000000 0.00000000 0.00000000 15.00000000" energy_frozen_part=0.00000000 Properties=species:S:1:pos:R:3:velocities:R:3:Z:I:1
H         2.10639787       6.69277183       4.12892927         0.00000000       0.00000000       0.00000000          1
H        10.32761624       7.60898884      12.30036602         0.00000000       0.00000000       0.00000000          1
H         7.99695404       7.88537649       3.65428814         0.00000000       0.00000000       0.00000000          1
H        10.76595571       9.79907279       5.16930420         0.00000000       0.00000000       0.00000000          1
H         5.40746862       9.12447224       2.16949093         0.00000000       0.00000000       0.00000000          1
H        14.85866484      14.16636302       3.50126853         0.00000000       0.00000000       0.00000000          1
6
pbc=[F, F, F] list_num_par=6 frozen=false iter=309 energy=-0.12154575 Lattice="15.00000000 0.00000000 0.00000000 0.00000000 15.00000000 0.00000000 0.00000000 0.00000000 15.00000000" energy_frozen_part=0.00000000 Properties=species:S:1:pos:R:3:velocities:R:3:Z:I:1
H         5.40936566      10.00100214       3.30236950         0.00000000       0.00000000       0.00000000          1
H         1.12751759      14.86202939       2.07124192         0.00000000       0.00000000       0.00000000          1