6
pbc=[F, F, F] list_num_par=6 frozen=false iter=9 energy=16.51939353 Lattice="15.00000000 0.00000000 0.00000000 0.00000000 15.00000000 0.00000000 0.00000000 0.00000000 15.00000000" energy_frozen_part=0.00000000 Properties=species:S:1:pos:R:3:velocities:R:3:Z:I:1
H         7.80116437       3.59325073       7.17106504         0.00000000       0.00000000       0.00000000          1
H        13.74406827       5.85080489       5.39879854         0.00000000       0.00000000       0.00000000          1
H         6.25961347      11.98010548       1.15729235         0.00000000       0.00000000       0.00000000          1
H         7.62778841       2.40038898       8.52110551         0.00000000       0.00000000       0.00000000          1
H         6.34404003       9.45487407      10.30196758         0.00000000       0.00000000       0.00000000          1
H        14.46002227       0.54927195       1.69339429         0.00000000       0.00000000       0.00000000          1
6
pbc=[F, F, F] list_num_par=6 frozen=false iter=19 energy=1.09804385 Lattice="15.00000000 0.00000000 0.00000000 0.00000000 15.00000000 0.00000000 0.00000000 0.00000000 15.00000000" energy_frozen_part=0.00000000 Properties=species:S:1:pos:R:3:velocities:R:3:Z:I:1
H         7.78353918      11.39129914       0.47016139         0.00000000       0.00000000       0.00000000          1
H         6.36435946       8.60353320       1.69467547         0.00000000       0.00000000       0.00000000          1
H         4.53436224       7.45871434       1.99759627         0.00000000       0.00000000       0.00000000          1
H         3.53028592       0.29787705       8.11757932         0.00000000       0.00000000       0.00000000          1
H         2.86741308      14.50496771       0.13651285         0.00000000       0.00000000       0.00000000          1
H         6.10279489      10.37866832      12.97827615         0.00000000       0.00000000       0.00000000          1
6
pbc=[F, F, F] list_num_par=6 frozen=false iter=29 energy=0.05936178 Lattice="15.00000000 0.00000000 0.00000000 0.00000000 15.00000000 0.00000000 0.00000000 0.00000000 15.00000000" energy_frozen_part=0.00000000 Properties=species:S:1:pos:R:3:velocities:R:3:Z:I:1
H         8.03014179       3.83934611       1.28452540         0.00000000       0.00000000       0.00000000          1
H         3.93774626       9.78447235      10.71621185         0.00000000       0.00000000       0.00000000          1
H         7.65964000       5.04903390       6.22317586         0.00000000       0.00000000       0.00000000          1
H        12.98658707      12.09907815       6.86434117         0.00000000       0.00000000       0.00000000          1
H         1.12856127       1.98675775       4.82161314         0.00000000       0.00000000       0.00000000          1
H        10.01711793       5.50553553       6.67046766         0.00000000       0.00000000       0.00000000          1
6
pbc=[F, F, F] list_num_par=6 frozen=false iter=39 energy=-0.00446902 Lattice="15.00000000 0.00000000 0.00000000 0.00000000 15.00000000 0.00000000 0.00000000 0.00000000 15.00000000" energy_frozen_part=0.00000000 Properties=species:S:1:pos:R:3:velocities:R:3:Z:I:1
H        11.97114814       5.24097382       2.93137441         0.00000000       0.00000000       0.00000000          1
H         4.16961181       9.58103954       1.79284845         0.00000000       0.00000000       0.00000000          1
H         1.60328421       3.77472126       0.12417636         0.00000000       0.00000000       0.00000000          1
H         7.10685586      13.68516189       8.08740271         0.00000000       0.00000000       0.00000000          1
H         0.11813942      12.83987477       7.68084128         0.00000000       0.00000000       0.00000000          1
H        13.35049047      10.47979653       0.30775215         0.00000000       0.00000000       0.00000000          1
6
pbc=[F, F, F] list_num_par=6 frozen=false iter=49 energy=-0.00625370 Lattice="15.00000000 0.00000000 0.00000000 0.00000000 15.00000000 0.00000000 0.00000000 0.00000000 15.00000000" energy_frozen_part=0.00000000 Properties=species:S:1:pos:R:3:velocities:R:3:Z:I:1
H         2.27782916       9.70423437       3.58364094         0.00000000       0.00000000       0.00000000          1
H         1.74137624      12.94611445       9.85719475         0.00000000       0.00000000       0.00000000          1
H        13.40126339       9.91004431      14.39620206         0.00000000       0.00000000       0.00000000          1
H        14.89177032      12.87951062       2.48146211         0.00000000       0.00000000       0.00000000          1
H        12.88150232       9.69831302       9.11146709         0.00000000       0.00000000       0.00000000          1
H         3.33476614       5.61444269       9.54498997         0.00000000       0.00000000       0.00000000          1
6
pbc=[F, F, F] list_num_par=6 frozen=false iter=59 energy=-0.00831003 Lattice="15.00000000 0.00000000 0.00000000 0.00000000 15.00000000 0.00000000 0.00000000 0.00000000 15.00000000" energy_frozen_part=0.00000000 Properties=species:S:1:pos:R:3:velocities:R:3:Z:I:1
H         3.96741860       4.07338335       9.42236957         0.00000000       0.00000000       0.00000000          1
H        14.47418835      13.35479500       8.86464062         0.00000000       0.00000000       0.00000000          1
H        12.93535282       9.56847961       2.36330779         0.00000000       0.00000000       0.00000000          1
H        12.12750577      14.10453069      13.53323824         0.00000000       0.00000000       0.00000000          1
H        10.88361055       4.69085916       1.03057400         0.00000000       0.00000000       0.00000000          1
H        14.27869566       4.19630893      13.68677004         0.00000000       0.00000000       0.00000000          1
6
pbc=[F, F, F] list_num_par=6 frozen=false iter=69 energy=-0.01130986 Lattice="15.00000000 0.00000000 0.00000000 0.00000000 15.00000000 0.00000000 0.00000000 0.00000000 15.00000000" energy_frozen_part=0.00000000 Properties=species:S:1:pos:R:3:velocities:R:3:Z:I:1
H        11.82873224      11.85198495       0.57421291         0.00000000       0.00000000       0.00000000          1
H         1.59545852       4.61351865       4.20754240         0.00000000       0.00000000       0.00000000          1
H        12.03096709      10.99762615      14.91427332         0.00000000       0.00000000       0.00000000          1
H        13.81634976       7.07802094       6.48014712         0.00000000       0.00000000       0.00000000          1
H         9.55025575      14.69320819      13.55804396         0.00000000       0.00000000       0.00000000          1
H         4.92080393       8.72432686       7.50348373         0.00000000       0.00000000       0.00000000          1
6
pbc=[F, F, F] list_num_par=6 frozen=false iter=79 energy=-0.01453392 Lattice="15.00000000 0.00000000 0.00000000 0.00000000 15.00000000 0.00000000 0.00000000 0.00000000 15.00000000" energy_frozen_part=0.00000000 Properties=species:S:1:pos:R:3:velocities:R:3:Z:I:1
H        14.76854893       3.64510646      11.75368920         0.00000000       0.00000000       0.00000000          1
H        12.64171994      13.78601388       7.52047577         0.00000000       0.00000000       0.00000000          1
H        13.36534295       5.00439378       3.34062266         0.00000000       0.00000000       0.00000000          1
H         8.35604145      12.79764554       6.14551391         0.00000000       0.00000000       0.00000000          1
H         4.03958557       2.87850718       4.11799788         0.00000000       0.00000000       0.00000000          1
H         1.11301997       4.92699468       0.26510736         0.00000000       0.00000000       0.00000000          1
6
pbc=[F, F, F] list_num_par=6 frozen=false iter=89 energy=-0.01703734 Lattice="15.00000000 0.00000000 0.00000000 0.00000000 15.00000000 0.00000000 0.00000000 0.00000000 15.00000000" energy_frozen_part=0.00000000 Properties=species:S:1:pos:R:3:velocities:R:3:Z:I:1
H         9.31045753       7.18402048      12.54330287         0.00000000       0.00000000       0.00000000          1
H         6.15173602       2.28628860      11.74884816         0.00000000       0.00000000       0.00000000          1
H         1.27795141       2.02757108       4.27861273         0.00000000       0.00000000       0.00000000          1
H         6.94217354      13.55382733      10.04536790         0.00000000       0.00000000       0.00000000          1
H         5.37921309      11.60941603       1.13277135         0.00000000       0.00000000       0.00000000          1
H         2.14729574       2.51112143      13.42538543         0.00000000       0.00000000       0.00000000          1
6
pbc=[F, F, F] list_num_par=6 frozen=false iter=99 energy=-0.02386273 Lattice="15.00000000 0.00000000 0.00000000 0.00000000 15.00000000 0.00000000 0.00000000 0.00000000 15.00000000" energy_frozen_part=0.00000000 Properties=species:S:1:pos:R:3:velocities:R:3:Z:I:1
H         2.95418540       4.15284808       0.32719288         0.00000000       0.00000000       0.00000000          1
H         6.86622622       4.79497836      14.69762499         0.00000000       0.00000000       0.00000000          1
H         7.67117130      11.19384615      11.61492208         0.00000000       0.00000000       0.00000000          1
H         1.94806578      14.94656520       6.04421670         0.00000000       0.00000000       0.00000000          1
H         8.13876705       1.72575686      10.05429851         0.00000000       0.00000000       0.00000000          1
H         1.56554203       7.36786560       2.40208766         0.00000000       0.00000000       0.00000000          1
6
pbc=[F, F, F] list_num_par=6 frozen=false iter=109 energy=-0.02624711 Lattice="15.00000000 0.00000000 0.00000000 0.00000000 15.00000000 0.00000000 0.00000000 0.00000000 15.00000000" energy_frozen_part=0.00000000 Properties=species:S:1:pos:R:3:velocities:R:3:Z:I:1
H         5.94221188      10.70619495       3.96526109         0.00000000       0.00000000       0.00000000          1
H         2.92689926       7.69731618       9.62347803         0.00000000       0.00000000       0.00000000          1
H        13.47222788       0.58395071      10.68061686         0.00000000       0.00000000       0.00000000          1
H         0.23014963      10.63451569      11.27411244         0.00000000       0.00000000       0.00000000          1
H         6.06618855       2.31480988       7.31666000         0.00000000       0.00000000       0.00000000          1
H         2.11141283       5.79411904      14.00330110         0.00000000       0.00000000       0.00000000          1
6
pbc=[F, F, F] list_num_par=6 frozen=false iter=119 energy=-0.03044719 Lattice="15.00000000 0.00000000 0.00000000 0.00000000 15.00000000 0.00000000 0.00000000 0.00000000 15.00000000" energy_frozen_part=0.00000000 Properties=species:S:1:pos:R:3:velocities:R:3:Z:I:1
H         6.83286523       4.10916529       9.41384241         0.00000000       0.00000000       0.00000000          1
H         1.05131913      12.56182247       3.64037275         0.00000000       0.00000000       0.00000000          1
H         9.05860476       9.38136915       7.04375640         0.00000000       0.00000000       0.00000000          1
H        10.88770955       0.91582328      10.20755830         0.00000000       0.00000000       0.00000000          1
H         3.61568022      11.00298907      13.70274475         0.00000000       0.00000000       0.00000000          1
H         3.22384638       3.90636713      11.07028479         0.00000000       0.00000000       0.00000000          1
6
pbc=[F, F, F] list_num_par=6 frozen=false iter=129 energy=-0.03486345 Lattice="15.00000000 0.00000000 0.00000000 0.00000000 15.00000000 0.00000000 0.00000000 0.00000000 15.00000000" energy_frozen_part=0.00000000 Properties=species:S:1:pos:R:3:velocities:R:3:Z:I:1
H        10.64318430       2.94134657       6.99412371         0.00000000       0.00000000       0.00000000          1
H         1.42822283       6.23898353       3.62719145         0.00000000       0.00000000       0.00000000          1
H         2.13988696      14.87415585       4.38636185         0.00000000       0.00000000       0.00000000          1
H         7.75467785       8.26659975       4.58412073         0.00000000       0.00000000       0.00000000          1
H        10.01758881       4.98564375       5.68371123         0.00000000       0.00000000       0.00000000          1
H        14.30110552       3.92023036      10.34897676         0.00000000       0.00000000       0.00000000          1
6
pbc=[F, F, F] list_num_par=6 frozen=false iter=139 energy=-0.03862771 Lattice="15.00000000 0.00000000 0.00000000 0.00000000 15.00000000 0.00000000 0.00000000 0.00000000 15.00000000" energy_frozen_part=0.00000000 Properties=species:S:1:pos:R:3:velocities:R:3:Z:I:1
H         7.17621072       1.38410187       6.93013681         0.00000000       0.00000000       0.00000000          1
H         6.17355889       6.98662131       1.28887477         0.00000000       0.00000000       0.00000000          1
H         1.46407924       4.33182235       0.84758790         0.00000000       0.00000000       0.00000000          1
H         0.56965219      12.61740529       1.22532424         0.00000000       0.00000000       0.00000000          1
H         9.07310930       6.68636075       3.62057003         0.00000000       0.00000000       0.00000000          1
H         3.08396462      12.72454672      13.79312916         0.00000000       0.00000000       0.00000000          1
6
pbc=[F, F, F] list_num_par=6 frozen=false iter=149 energy=-0.04119041 Lattice="15.00000000 0.00000000 0.00000000 0.00000000 15.00000000 0.00000000 0.00000000 0.00000000 15.00000000" energy_frozen_part=0.00000000 Properties=species:S:1:pos:R:3:velocities:R:3:Z:I:1
H        14.98320040      13.34433767       2.63837343         0.00000000       0.00000000       0.00000000          1
H        10.38113453       3.36501968      11.68115056         0.00000000       0.00000000       0.00000000          1
H         2.65361192       5.56336154       0.85480417         0.00000000       0.00000000       0.00000000          1
H        13.34287438      10.27644522       3.46866551         0.00000000       0.00000000       0.00000000          1
H         0.44149895       7.92600998      12.56528565         0.00000000       0.00000000       0.00000000          1
H         8.27268004      12.96261118      11.24164713         0.00000000       0.00000000       0.00000000          1
6
pbc=[F, F, F] list_num_par=6 frozen=false iter=159 energy=-0.04672563 Lattice="15.00000000 0.00000000 0.00000000 0.00000000 15.00000000 0.00000000 0.00000000 0.00000000 15.00000000" energy_frozen_part=0.00000000 Properties=species:S:1:pos:R:3:velocities:R:3:Z:I:1
H        13.78940741       8.60176357      10.86287195         0.00000000       0.00000000       0.00000000          1
H        13.77330961       6.97373709       1.79163970         0.00000000       0.00000000       0.00000000          1
H         7.64602911       7.53233865      13.34713515         0.00000000       0.00000000       0.00000000          1
H         3.50262107       2.02543658       4.08729053         0.00000000       0.00000000       0.00000000          1
H         5.41136969       0.19395339       1.67861110         0.00000000       0.00000000       0.00000000          1
H        14.12094460       1.79744171       2.55352972         0.00000000       0.00000000       0.00000000          1
6
pbc=[F, F, F] list_num_par=6 frozen=false iter=169 energy=-0.05096173 Lattice="15.00000000 0.00000000 0.00000000 0.00000000 15.00000000 0.00000000 0.00000000 0.00000000 15.00000000" energy_frozen_part=0.00000000 Properties=species:S:1:pos:R:3:velocities:R:3:Z:I:1
H        14.63401876       3.58344661      11.97891625         0.00000000       0.00000000       0.00000000          1
H        10.04839301       1.07589104      10.17995886         0.00000000       0.00000000       0.00000000          1
H        11.17477535       4.37248340       7.18090958         0.00000000       0.00000000       0.00000000          1
H        12.71966892      11.02799152       1.92788101         0.00000000       0.00000000       0.00000000          1
H        11.87230063       1.71188486      14.25937958         0.00000000       0.00000000       0.00000000          1
H        10.39192217       8.90352658      11.54551197         0.00000000       0.00000000       0.00000000          1
6
pbc=[F, F, F] list_num_par=6 frozen=false iter=179 energy=-0.05595004 Lattice="15.00000000 0.00000000 0.00000000 0.00000000 15.00000000 0.00000000 0.00000000 0.00000000 15.00000000" energy_frozen_part=0.00000000 Properties=species:S:1:pos:R:3:velocities:R:3:Z:I:1
H        12.68750669       0.10409745      14.94075561         0.00000000       0.00000000       0.00000000          1
H        14.08405379       7.53143229      12.71922448         0.00000000       0.00000000       0.00000000          1
H         9.78599422       2.72465354       5.11876638         0.00000000       0.00000000       0.00000000          1
H         7.81087508       8.06394651      10.59791345         0.00000000       0.00000000       0.00000000          1
H         4.93530248       9.61318676      11.52331789         0.00000000       0.00000000       0.00000000          1
H         0.32362334       4.05697670      11.53712930         0.00000000       0.00000000       0.00000000          1
6
pbc=[F, F, F] list_num_par=6 frozen=false iter=189 energy=-0.06137021 Lattice="15.00000000 0.00000000 0.00000000 0.00000000 15.00000000 0.00000000 0.00000000 0.00000000 15.00000000" energy_frozen_part=0.00000000 Properties=species:S:1:pos:R:3:velocities:R:3:Z:I:1
H         0.41436909      11.84259074       9.02204137         0.00000000       0.00000000       0.00000000          1
H         1.40445502       4.65404035       6.25844800         0.00000000       0.00000000       0.00000000          1
H         4.62217588       9.73275380       1.40518705         0.00000000       0.00000000       0.00000000          1
H         7.84750635       8.66500487       1.28141145         0.00000000       0.00000000       0.00000000          1
H        12.45646748       5.11492124       9.20665815         0.00000000       0.00000000       0.00000000          1
H        12.08876537       6.26022797       0.93295352         0.00000000       0.00000000       0.00000000          1
6
pbc=[F, F, F] list_num_par=6 frozen=false iter=199 energy=-0.06833424 Lattice="15.00000000 0.00000000 0.00000000 0.00000000 15.00000000 0.00000000 0.00000000 0.00000000 15.00000000" energy_frozen_part=0.00000000 Properties=species:S:1:pos:R:3:velocities:R:3:Z:I:1
H         8.78844033       4.97350404       3.97606631         0.00000000       0.00000000       0.00000000          1
H         3.87682921       3.86333070      13.43776784         0.00000000       0.00000000       0.00000000          1
H         7.82949378       2.60346033       9.15964638         0.00000000       0.00000000       0.00000000          1
H        13.31677005       9.00353076       9.02500656         0.00000000       0.00000000       0.00000000          1
H         8.74130398       1.64027994       0.80639882         0.00000000       0.00000000       0.00000000          1
H         9.91902691       8.94631849       8.51467073         0.00000000       0.00000000       0.00000000          1
6
pbc=[F, F, F] list_num_par=6 frozen=false iter=209 energy=-0.07796418 Lattice="15.00000000 0.00000000 0.00000000 0.00000000 15.00000000 0.00000000 0.00000000 0.00000000 15.00000000" energy_frozen_part=0.00000000 Properties=species:S:1:pos:R:3:velocities:R:3:Z:I:1
H         0.09274893       1.97147587       0.97588971         0.00000000       0.00000000       0.00000000          1
H        13.72105429       9.71218769       4.84012900         0.00000000       0.00000000       0.00000000          1
H        11.52107941       5.63836589      12.54530412         0.00000000       0.00000000       0.00000000          1
H        12.57380970       3.00468823      13.95689190         0.00000000       0.00000000       0.00000000          1
H         4.78171526       4.14548522       9.78568486         0.00000000       0.00000000       0.00000000          1
H         9.22041475       4.41340159       6.11480436         0.00000000       0.00000000       0.00000000          1
6
pbc=[F, F, F] list_num_par=6 frozen=false iter=219 energy=-0.08417752 Lattice="15.00000000 0.00000000 0.00000000 0.00000000 15.00000000 0.00000000 0.00000000 0.00000000 15.00000000" energy_frozen_part=0.00000000 Properties=species:S:1:pos:R:3:velocities:R:3:Z:I:1
H         9.29117254       7.83736489       5.12917158         0.00000000       0.00000000       0.00000000          1
H         2.09291580       6.63758652       4.88303746         0.00000000       0.00000000       0.00000000          1
H         0.38731424       7.88497124      12.41114389         0.00000000       0.00000000       0.00000000          1
H         2.90601806       9.36095318      13.49742922         0.00000000       0.00000000       0.00000000          1
H         7.58132899      11.89636379       8.28078661         0.00000000       0.00000000       0.00000000          1
H         8.62193006       3.32600231      11.75995010         0.00000000       0.00000000       0.00000000          1
6
pbc=[F, F, F] list_num_par=6 frozen=false iter=229 energy=-0.09035334 Lattice="15.00000000 0.00000000 0.00000000 0.00000000 15.00000000 0.00000000 0.00000000 0.00000000 15.00000000" energy_frozen_part=0.00000000 Properties=species:S:1:pos:R:3:velocities:R:3:Z:I:1
H         9.92938930       4.97852280      13.99812626         0.00000000       0.00000000       0.00000000          1
H        12.48615793       1.46346914       9.45112043         0.00000000       0.00000000       0.00000000          1
H        10.12786167      14.16290596      12.14480883         0.00000000       0.00000000       0.00000000          1
H         7.33886648      14.63783235       3.28139443         0.00000000       0.00000000       0.00000000          1
H        14.25612217      13.12241743      14.97304555         0.00000000       0.00000000       0.00000000          1
H         9.57237242      13.70090160       5.16489017         0.00000000       0.00000000       0.00000000          1
6
pbc=[F, F, F] list_num_par=6 frozen=false iter=239 energy=-0.09503951 Lattice="15.00000000 0.00000000 0.00000000 0.00000000 15.00000000 0.00000000 0.00000000 0.00000000 15.00000000" energy_frozen_part=0.00000000 Properties=species:S:1:pos:R:3:velocities:R:3:Z:I:1
H         3.19557566      12.59198864       5.61672205         0.00000000       0.00000000       0.00000000          1
H         6.14764891       9.41325303      10.94675352         0.00000000       0.00000000       0.00000000          1
H         9.24432951      10.45281104       5.78171810         0.00000000       0.00000000       0.00000000          1
H        12.23841488       1.23420513       7.01450267         0.00000000       0.00000000       0.00000000          1
H         5.86970081       2.85990746       7.34790632         0.00000000       0.00000000       0.00000000          1
H         3.61228246       1.51122345       5.91007323         0.00000000       0.00000000       0.00000000          1
6
pbc=[F, F, F] list_num_par=6 frozen=false iter=249 energy=-0.09878835 Lattice="15.00000000 0.00000000 0.00000000 0.00000000 15.00000000 0.00000000 0.00000000 0.00000000 15.00000000" energy_frozen_part=0.00000000 Properties=species:S:1:pos:R:3:velocities:R:3:Z:I:1
H         9.96448857      10.41909203       5.55212438         0.00000000       0.00000000       0.00000000          1
H         2.41418701      14.44595769       0.40224242         0.00000000       0.00000000       0.00000000          1
H         8.57935770      11.51308530       3.48964601         0.00000000       0.00000000       0.00000000          1
H        13.37028751       4.31972293       6.58017564         0.00000000       0.00000000       0.00000000          1
H         6.24580560       8.63369584      14.83226544         0.00000000       0.00000000       0.00000000          1
H        11.37294111      11.31709397      14.33180417         0.00000000       0.00000000       0.00000000          1
6
pbc=[F, F, F] list_num_par=6 frozen=false iter=259 energy=-0.10096600 Lattice="15.00000000 0.00000000 0.00000000 0.00000000 15.00000000 0.00000000 0.00000000 0.00000000 15.00000000" energy_frozen_part=0.00000000 Properties=species:S:1:pos:R:3:velocities:R:3:Z:I:1
H         7.07472758       8.39717826      10.54864667         0.00000000       0.00000000       0.00000000          1
H         9.03430101       6.64596604       7.24880973         0.00000000       0.00000000       0.00000000          1
H        13.35042359       3.24302869      10.91845422         0.00000000       0.00000000       0.00000000          1
H        11.27409842      12.06403410      10.96991132         0.00000000       0.00000000       0.00000000          1
H        12.72060820       0.94934064       2.46613428         0.00000000       0.00000000       0.00000000          1
H        11.83105309       1.27085834       5.46393752         0.00000000       0.00000000       0.00000000          1
6
pbc=[F, F, F] list_num_par=6 frozen=false iter=269 energy=-0.10371544 Lattice="15.00000000 0.00000000 0.00000000 0.00000000 15.00000000 0.00000000 0.00000000 0.00000000 15.00000000" energy_frozen_part=0.00000000 Properties=species:S:1:pos:R:3:velocities:R:3:Z:I:1
H        11.17961084       2.19351777       3.03127587         0.00000000       0.00000000       0.00000000          1
H         9.10252489       2.90685880       9.19760489         0.00000000       0.00000000       0.00000000          1
H        12.05370600      10.19741067      13.02124627         0.00000000       0.00000000       0.00000000          1
H        14.77572006      10.17018857       4.10259753         0.00000000       0.00000000       0.00000000          1
H        13.24225160       8.41660706      10.69298032         0.00000000       0.00000000       0.00000000          1
H        13.79117504       1.06043515       5.71327738         0.00000000       0.00000000       0.00000000          1
6
pbc=[F, F, F] list_num_par=6 frozen=false iter=279 energy=-0.10591145 Lattice="15.00000000 0.00000000 0.00000000 0.00000000 15.00000000 0.00000000 0.00000000 0.00000000 15.00000000" energy_frozen_part=0.00000000 Properties=species:S:1:pos:R:3:velocities:R:3:Z:I:1
H         8.89627609       4.00764486       9.81105882         0.00000000       0.00000000       0.00000000          1
H         8.99500566       1.36800820       8.84514127         0.00000000       0.00000000       0.00000000          1
H         3.28494948       7.19623786      14.63433955         0.00000000       0.00000000       0.00000000          1
H         0.51341579      11.55262175       0.01318422         0.00000000       0.00000000       0.00000000          1
H        13.06054512       6.76160674      11.61377526         0.00000000       0.00000000       0.00000000          1
H        11.22828023      12.43257184       8.36102810         0.00000000       0.00000000       0.00000000          1
6
pbc=[F, F, F] list_num_par=6 frozen=false iter=289 energy=-0.10799366 Lattice="15.00000000 0.00000000 0.00000000 0.00000000 15.00000000 0.00000000 0.00000000 0.00000000 15.00000000" energy_frozen_part=0.00000000 Properties=species:S:1:pos:R:3:velocities:R:3:Z:I:1
H         5.22056428      10.82490958      10.86756417         0.00000000       0.00000000       0.00000000          1
H        14.14738450      13.98401814       6.34940564         0.00000000       0.00000000       0.00000000          1
H         8.93667346      12.69664618      10.22716667         0.00000000       0.00000000       0.00000000          1
H        12.30412224       0.77728708       4.00148765         0.00000000       0.00000000       0.00000000          1
H        12.93371938      12.30248995       8.71796691         0.00000000       0.00000000       0.00000000          1
H         2.41597811       5.34191811       3.33859182         0.00000000       0.00000000       0.00000000          1
6
pbc=[F, F, F] list_num_par=6 frozen=false iter=299 energy=-0.10952288 Lattice="15.00000000 0.00000000 0.00000000 0.00000000 15.00000000 0.00000000 0.00000000 0.00000000 15.00000000" energy_frozen_part=0.00000000 Properties=species:S:1:pos:R:3:velocities:R:3:Z:I:1
H         9.12442757       3.14497999       4.34707957         0.00000000       0.00000000       0.00000000          1
H         6.59293747      12.85684044      13.44056319         0.00000000       0.00000000       0.00000000          1
H         5.96765847       8.10217839       7.18367899         0.00000000       0.00000000       0.00000000          1
H         8.34551600      10.58859925       1.38037216         0.00000000       0.00000000       0.00000000          1
H         3.56368376      12.29419417       5.99291739         0.00000000       0.00000000       0.00000000          1
H         4.56635313      14.19199601      14.78773206         0.00000000       0.00000000       0.00000000          1
6
pbc=[F, F, F] list_num_par=6 frozen=false iter=309 energy=-0.11145073 Lattice="15.00000000 0.00000000 0.00000000 0.00000000 15.00000000 0.00000000 0.00000000 0.00000000 15.00000000" energy_frozen_part=0.00000000 Properties=species:S:1:pos:R:3:velocities:R:3:Z:I:1
H        14.25547328      10.09550917      13.41589485         0.00000000       0.00000000       0.00000000          1
H        12.81253601       2.18771296       4.44213503         0.00000000       0.00000000       0.00000000          1