6
pbc=[F, F, F] list_num_par=6 frozen=false iter=20000 energy=-1.26974174 Lattice="15.00000000 0.00000000 0.00000000 0.00000000 15.00000000 0.00000000 0.00000000 0.00000000 15.00000000" energy_frozen_part=0.00000000 Properties=species:S:1:pos:R:3:velocities:R:3:Z:I:1
H         3.83797374       0.92857389       4.09457596         0.00000000       0.00000000       0.00000000          1
H         3.88810989       3.51537462       5.14823726         0.00000000       0.00000000       0.00000000          1
H         1.36351526       4.00823546       4.05837404         0.00000000       0.00000000       0.00000000          1
H         1.31337955       1.42142531       3.00471385         0.00000000       0.00000000       0.00000000          1
H         3.44578298       3.12788651       2.41721860         0.00000000       0.00000000       0.00000000          1
H         1.75569929       1.80892823       5.73573798         0.00000000       0.00000000       0.00000000          1
6
pbc=[F, F, F] list_num_par=6 frozen=false iter=20000 energy=-1.26974174 Lattice="15.00000000 0.00000000 0.00000000 0.00000000 15.00000000 0.00000000 0.00000000 0.00000000 15.00000000" energy_frozen_part=0.00000000 Properties=species:S:1:pos:R:3:velocities:R:3:Z:I:1
H         3.83772654       0.92837245       4.09486317         0.00000000       0.00000000       0.00000000          1
H         3.88822492       3.51525189       5.14833282         0.00000000       0.00000000       0.00000000          1
H         1.36370901       4.00838977       4.05840230         0.00000000       0.00000000       0.00000000          1
H         1.31322272       1.42151131       3.00492031         0.00000000       0.00000000       0.00000000          1
H         3.44588203       3.12761301       2.41733529         0.00000000       0.00000000       0.00000000          1
H         1.75556663       1.80915123       5.73592638         0.00000000       0.00000000       0.00000000          1
6
pbc=[F, F, F] list_num_par=6 frozen=false iter=20000 energy=-1.26974174 Lattice="15.00000000 0.00000000 0.00000000 0.00000000 15.00000000 0.00000000 0.00000000 0.00000000 15.00000000" energy_frozen_part=0.00000000 Properties=species:S:1:pos:R:3:velocities:R:3:Z:I:1
H         3.83795666       0.92857279       4.09457464         0.00000000       0.00000000       0.00000000          1
H         3.88811099       3.51537442       5.14823860         0.00000000       0.00000000       0.00000000          1
H         1.36351446       4.00823371       4.05837777         0.00000000       0.00000000       0.00000000          1
H         1.31336540       1.42143342       3.00471081         0.00000000       0.00000000       0.00000000          1
H         3.44577594       3.12787355       2.41721537         0.00000000       0.00000000       0.00000000          1
H         1.75568929       1.80892675       5.73573161         0.00000000       0.00000000       0.00000000          1
6
pbc=[F, F, F] list_num_par=6 frozen=false iter=20000 energy=-1.26974174 Lattice="15.00000000 0.00000000 0.00000000 0.00000000 15.00000000 0.00000000 0.00000000 0.00000000 15.00000000" energy_frozen_part=0.00000000 Properties=species:S:1:pos:R:3:velocities:R:3:Z:I:1
H         3.83771323       0.92835513       4.09484033         0.00000000       0.00000000       0.00000000          1
H         3.88824195       3.51522917       5.14831841         0.00000000       0.00000000       0.00000000          1
H         1.36373355       4.00840364       4.05840484         0.00000000       0.00000000       0.00000000          1
H         1.31319912       1.42152428       3.00492096         0.00000000       0.00000000       0.00000000          1
H         3.44587540       3.12760181       2.41732496         0.00000000       0.00000000       0.00000000          1
H         1.75556136       1.80916040       5.73591365         0.00000000       0.00000000       0.00000000          1
6
pbc=[F, F, F] list_num_par=6 frozen=false iter=20000 energy=-1.26974174 Lattice="15.00000000 0.00000000 0.00000000 0.00000000 15.00000000 0.00000000 0.00000000 0.00000000 15.00000000" energy_frozen_part=0.00000000 Properties=species:S:1:pos:R:3:velocities:R:3:Z:I:1
H         3.83897972       0.92836411       4.09657667         0.00000000       0.00000000       0.00000000          1
H         3.88879772       3.51526903       5.15001047         0.00000000       0.00000000       0.00000000          1
H         1.36492124       4.00832736       4.05858106         0.00000000       0.00000000       0.00000000          1
H         1.31510263       1.42142583       3.00514311         0.00000000       0.00000000       0.00000000          1
H         3.44807780       3.12755903       2.41875956         0.00000000       0.00000000       0.00000000          1
H         1.75583177       1.80913454       5.73639050         0.00000000       0.00000000       0.00000000          1
6
pbc=[F, F, F] list_num_par=6 frozen=false iter=20000 energy=-1.26974174 Lattice="15.00000000 0.00000000 0.00000000 0.00000000 15.00000000 0.00000000 0.00000000 0.00000000 15.00000000" energy_frozen_part=0.00000000 Properties=species:S:1:pos:R:3:velocities:R:3:Z:I:1
H         3.83771339       0.92834520       4.09483122         0.00000000       0.00000000       0.00000000          1
H         3.88824068       3.51522676       5.14830799         0.00000000       0.00000000       0.00000000          1
H         1.36372186       4.00838262       4.05840524         0.00000000       0.00000000       0.00000000          1
H         1.31319592       1.42150862       3.00493077         0.00000000       0.00000000       0.00000000          1
H         3.44586777       3.12758065       2.41731367         0.00000000       0.00000000       0.00000000          1
H         1.75557474       1.80914250       5.73592794         0.00000000       0.00000000       0.00000000          1
6
pbc=[F, F, F] list_num_par=6 frozen=false iter=20000 energy=-1.26974174 Lattice="15.00000000 0.00000000 0.00000000 0.00000000 15.00000000 0.00000000 0.00000000 0.00000000 15.00000000" energy_frozen_part=0.00000000 Properties=species:S:1:pos:R:3:velocities:R:3:Z:I:1
H         3.83899382       0.92839358       4.09660903         0.00000000       0.00000000       0.00000000          1
H         3.88876170       3.51530121       5.15002695         0.00000000       0.00000000       0.00000000          1
H         1.36487671       4.00829433       4.05859346         0.00000000       0.00000000       0.00000000          1
H         1.31511149       1.42138148       3.00517415         0.00000000       0.00000000       0.00000000          1
H         3.44804744       3.12756104       2.41877943         0.00000000       0.00000000       0.00000000          1
H         1.75582172       1.80913211       5.73642703         0.00000000       0.00000000       0.00000000          1
6
pbc=[F, F, F] list_num_par=6 frozen=false iter=20000 energy=-1.26974174 Lattice="15.00000000 0.00000000 0.00000000 0.00000000 15.00000000 0.00000000 0.00000000 0.00000000 15.00000000" energy_frozen_part=0.00000000 Properties=species:S:1:pos:R:3:velocities:R:3:Z:I:1
H         3.83769564       0.92837255       4.09487536         0.00000000       0.00000000       0.00000000          1
H         3.88821540       3.51524212       5.14836815         0.00000000       0.00000000       0.00000000          1
H         1.36369959       4.00840950       4.05845012         0.00000000       0.00000000       0.00000000          1
H         1.31318506       1.42153491       3.00495696         0.00000000       0.00000000       0.00000000          1
H         3.44585467       3.12762365       2.41737570         0.00000000       0.00000000       0.00000000          1
H         1.75554306       1.80915379       5.73595031         0.00000000       0.00000000       0.00000000          1
6
pbc=[F, F, F] list_num_par=6 frozen=false iter=20000 energy=-1.26974174 Lattice="15.00000000 0.00000000 0.00000000 0.00000000 15.00000000 0.00000000 0.00000000 0.00000000 15.00000000" energy_frozen_part=0.00000000 Properties=species:S:1:pos:R:3:velocities:R:3:Z:I:1
H         3.83848065       0.92900415       4.09778292         0.00000000       0.00000000       0.00000000          1
H         3.88829867       3.51636109       5.15010183         0.00000000       0.00000000       0.00000000          1
H         1.36490536       4.00933152       4.05749495         0.00000000       0.00000000       0.00000000          1
H         1.31508945       1.42196526       3.00517750         0.00000000       0.00000000       0.00000000          1
H         3.44854428       3.12751557       2.41885461         0.00000000       0.00000000       0.00000000          1
H         1.75484359       1.81082751       5.73642067         0.00000000       0.00000000       0.00000000          1
6
pbc=[F, F, F] list_num_par=6 frozen=false iter=20000 energy=-1.26974174 Lattice="15.00000000 0.00000000 0.00000000 0.00000000 15.00000000 0.00000000 0.00000000 0.00000000 15.00000000" energy_frozen_part=0.00000000 Properties=species:S:1:pos:R:3:velocities:R:3:Z:I:1
H         3.84769489       0.93982365       4.09528291         0.00000000       0.00000000       0.00000000          1
H         3.87798502       3.52305997       5.15841105         0.00000000       0.00000000       0.00000000          1
H         1.34614459       3.99768277       4.07730863         0.00000000       0.00000000       0.00000000          1
H         1.31584265       1.41444405       3.01418396         0.00000000       0.00000000       0.00000000          1
H         3.43151812       3.14176548       2.42719060         0.00000000       0.00000000       0.00000000          1
H         1.76231355       1.79573107       5.74539446         0.00000000       0.00000000       0.00000000          1
6
pbc=[F, F, F] list_num_par=6 frozen=false iter=20000 energy=-1.26974174 Lattice="15.00000000 0.00000000 0.00000000 0.00000000 15.00000000 0.00000000 0.00000000 0.00000000 15.00000000" energy_frozen_part=0.00000000 Properties=species:S:1:pos:R:3:velocities:R:3:Z:I:1
H         3.83977490       0.92908025       4.09638179         0.00000000       0.00000000       0.00000000          1
H         3.88968790       3.51558384       5.15078848         0.00000000       0.00000000       0.00000000          1
H         1.36616708       4.00942011       4.05888239         0.00000000       0.00000000       0.00000000          1
H         1.31624990       1.42290676       3.00448081         0.00000000       0.00000000       0.00000000          1
H         3.44962238       3.12894448       2.41928192         0.00000000       0.00000000       0.00000000          1
H         1.75632402       1.80955121       5.73598861         0.00000000       0.00000000       0.00000000          1
6
pbc=[F, F, F] list_num_par=6 frozen=false iter=20000 energy=-1.26974174 Lattice="15.00000000 0.00000000 0.00000000 0.00000000 15.00000000 0.00000000 0.00000000 0.00000000 15.00000000" energy_frozen_part=0.00000000 Properties=species:S:1:pos:R:3:velocities:R:3:Z:I:1
H         3.83898636       0.92839675       4.09660101         0.00000000       0.00000000       0.00000000          1
H         3.88875311       3.51531137       5.15001371         0.00000000       0.00000000       0.00000000          1
H         1.36486396       4.00831315       4.05857440         0.00000000       0.00000000       0.00000000          1
H         1.31509834       1.42140142       3.00517196         0.00000000       0.00000000       0.00000000          1
H         3.44803924       3.12756731       2.41876766         0.00000000       0.00000000       0.00000000          1
H         1.75581332       1.80915155       5.73641289         0.00000000       0.00000000       0.00000000          1
6
pbc=[F, F, F] list_num_par=6 frozen=false iter=20000 energy=-1.26974174 Lattice="15.00000000 0.00000000 0.00000000 0.00000000 15.00000000 0.00000000 0.00000000 0.00000000 15.00000000" energy_frozen_part=0.00000000 Properties=species:S:1:pos:R:3:velocities:R:3:Z:I:1
H         3.83835716       0.92909830       4.09860172         0.00000000       0.00000000       0.00000000          1
H         3.88763321       3.51626724       5.15140800         0.00000000       0.00000000       0.00000000          1
H         1.36468835       4.00933801       4.05781645         0.00000000       0.00000000       0.00000000          1
H         1.31541421       1.42216219       3.00501893         0.00000000       0.00000000       0.00000000          1
H         3.44905860       3.12788932       2.41990591         0.00000000       0.00000000       0.00000000          1
H         1.75398258       1.81054226       5.73651799         0.00000000       0.00000000       0.00000000          1
6
pbc=[F, F, F] list_num_par=6 frozen=false iter=20000 energy=-1.26974174 Lattice="15.00000000 0.00000000 0.00000000 0.00000000 15.00000000 0.00000000 0.00000000 0.00000000 15.00000000" energy_frozen_part=0.00000000 Properties=species:S:1:pos:R:3:velocities:R:3:Z:I:1
H         3.83855427       0.92902395       4.09778173         0.00000000       0.00000000       0.00000000          1
H         3.88827072       3.51638003       5.15009811         0.00000000       0.00000000       0.00000000          1
H         1.36486803       4.00925458       4.05750566         0.00000000       0.00000000       0.00000000          1
H         1.31514672       1.42189490       3.00517068         0.00000000       0.00000000       0.00000000          1
H         3.44853573       3.12752377       2.41885310         0.00000000       0.00000000       0.00000000          1
H         1.75487929       1.81075061       5.73641671         0.00000000       0.00000000       0.00000000          1
6
pbc=[F, F, F] list_num_par=6 frozen=false iter=20000 energy=-1.26974174 Lattice="15.00000000 0.00000000 0.00000000 0.00000000 15.00000000 0.00000000 0.00000000 0.00000000 15.00000000" energy_frozen_part=0.00000000 Properties=species:S:1:pos:R:3:velocities:R:3:Z:I:1
H         3.83769044       0.92838704       4.09486886         0.00000000       0.00000000       0.00000000          1
H         3.88820083       3.51525186       5.14836481         0.00000000       0.00000000       0.00000000          1
H         1.36368577       4.00840433       4.05844024         0.00000000       0.00000000       0.00000000          1
H         1.31317755       1.42154142       3.00495073         0.00000000       0.00000000       0.00000000          1
H         3.44584173       3.12763255       2.41735554         0.00000000       0.00000000       0.00000000          1
H         1.75553179       1.80915590       5.73594873         0.00000000       0.00000000       0.00000000          1
6
pbc=[F, F, F] list_num_par=6 frozen=false iter=20000 energy=-1.26974174 Lattice="15.00000000 0.00000000 0.00000000 0.00000000 15.00000000 0.00000000 0.00000000 0.00000000 15.00000000" energy_frozen_part=0.00000000 Properties=species:S:1:pos:R:3:velocities:R:3:Z:I:1
H         3.83899840       0.92836238       4.09658425         0.00000000       0.00000000       0.00000000          1
H         3.88880941       3.51527026       5.14999594         0.00000000       0.00000000       0.00000000          1
H         1.36492472       4.00831135       4.05857029         0.00000000       0.00000000       0.00000000          1
H         1.31511633       1.42140333       3.00515794         0.00000000       0.00000000       0.00000000          1
H         3.44808356       3.12753730       2.41875297         0.00000000       0.00000000       0.00000000          1
H         1.75584158       1.80914104       5.73640097         0.00000000       0.00000000       0.00000000          1
6
pbc=[F, F, F] list_num_par=6 frozen=false iter=20000 energy=-1.26974174 Lattice="15.00000000 0.00000000 0.00000000 0.00000000 15.00000000 0.00000000 0.00000000 0.00000000 15.00000000" energy_frozen_part=0.00000000 Properties=species:S:1:pos:R:3:velocities:R:3:Z:I:1
H         3.83894663       0.92836652       4.09662607         0.00000000       0.00000000       0.00000000          1
H         3.88876585       3.51526650       5.15004907         0.00000000       0.00000000       0.00000000          1
H         1.36490423       4.00833550       4.05859580         0.00000000       0.00000000       0.00000000          1
H         1.31508645       1.42142730       3.00517070         0.00000000       0.00000000       0.00000000          1
H         3.44806890       3.12754778       2.41880200         0.00000000       0.00000000       0.00000000          1
H         1.75577986       1.80915625       5.73642000         0.00000000       0.00000000       0.00000000          1
6
pbc=[F, F, F] list_num_par=6 frozen=false iter=20000 energy=-1.26974174 Lattice="15.00000000 0.00000000 0.00000000 0.00000000 15.00000000 0.00000000 0.00000000 0.00000000 15.00000000" energy_frozen_part=0.00000000 Properties=species:S:1:pos:R:3:velocities:R:3:Z:I:1
H         3.83899722       0.92837165       4.09657024         0.00000000       0.00000000       0.00000000          1
H         3.88880242       3.51527410       5.15000931         0.00000000       0.00000000       0.00000000          1
H         1.36492006       4.00831787       4.05857092         0.00000000       0.00000000       0.00000000          1
H         1.31511771       1.42141999       3.00513551         0.00000000       0.00000000       0.00000000          1
H         3.44808554       3.12755136       2.41876202         0.00000000       0.00000000       0.00000000          1
H         1.75583592       1.80913914       5.73638800         0.00000000       0.00000000       0.00000000          1
6
pbc=[F, F, F] list_num_par=6 frozen=false iter=20000 energy=-1.26974174 Lattice="15.00000000 0.00000000 0.00000000 0.00000000 15.00000000 0.00000000 0.00000000 0.00000000 15.00000000" energy_frozen_part=0.00000000 Properties=species:S:1:pos:R:3:velocities:R:3:Z:I:1
H         3.83854397       0.92902901       4.09778880         0.00000000       0.00000000       0.00000000          1
H         3.88824743       3.51637705       5.15012959         0.00000000       0.00000000       0.00000000          1
H         1.36485220       4.00925628       4.05750526         0.00000000       0.00000000       0.00000000          1
H         1.31515069       1.42190708       3.00515269         0.00000000       0.00000000       0.00000000          1
H         3.44853704       3.12754686       2.41887188         0.00000000       0.00000000       0.00000000          1
H         1.75485259       1.81074332       5.73641012         0.00000000       0.00000000       0.00000000          1
6
pbc=[F, F, F] list_num_par=6 frozen=false iter=20000 energy=-1.26974174 Lattice="15.00000000 0.00000000 0.00000000 0.00000000 15.00000000 0.00000000 0.00000000 0.00000000 15.00000000" energy_frozen_part=0.00000000 Properties=species:S:1:pos:R:3:velocities:R:3:Z:I:1
H         3.83898931       0.92836414       4.09656842         0.00000000       0.00000000       0.00000000          1
H         3.88880743       3.51527852       5.14999805         0.00000000       0.00000000       0.00000000          1
H         1.36492698       4.00831625       4.05856136         0.00000000       0.00000000       0.00000000          1
H         1.31511681       1.42141123       3.00513452         0.00000000       0.00000000       0.00000000          1
H         3.44808202       3.12753809       2.41874813         0.00000000       0.00000000       0.00000000          1
H         1.75584376       1.80914430       5.73638600         0.00000000       0.00000000       0.00000000          1
6
pbc=[F, F, F] list_num_par=6 frozen=false iter=20000 energy=-1.26974174 Lattice="15.00000000 0.00000000 0.00000000 0.00000000 15.00000000 0.00000000 0.00000000 0.00000000 15.00000000" energy_frozen_part=0.00000000 Properties=species:S:1:pos:R:3:velocities:R:3:Z:I:1
H         3.84766594       0.93981126       4.09528519         0.00000000       0.00000000       0.00000000          1
H         3.87798550       3.52305471       5.15840322         0.00000000       0.00000000       0.00000000          1
H         1.34614916       3.99768839       4.07730048         0.00000000       0.00000000       0.00000000          1
H         1.31582516       1.41444950       3.01418550         0.00000000       0.00000000       0.00000000          1
H         3.43151397       3.14174244       2.42717950         0.00000000       0.00000000       0.00000000          1
H         1.76229718       1.79575689       5.74540516         0.00000000       0.00000000       0.00000000          1
6
pbc=[F, F, F] list_num_par=6 frozen=false iter=20000 energy=-1.26974174 Lattice="15.00000000 0.00000000 0.00000000 0.00000000 15.00000000 0.00000000 0.00000000 0.00000000 15.00000000" energy_frozen_part=0.00000000 Properties=species:S:1:pos:R:3:velocities:R:3:Z:I:1
H         3.83801306       0.92854948       4.09453838         0.00000000       0.00000000       0.00000000          1
H         3.88814394       3.51538840       5.14812531         0.00000000       0.00000000       0.00000000          1
H         1.36352943       4.00818476       4.05829852         0.00000000       0.00000000       0.00000000          1
H         1.31339419       1.42135419       3.00470488         0.00000000       0.00000000       0.00000000          1
H         3.44578118       3.12780382       2.41712445         0.00000000       0.00000000       0.00000000          1
H         1.75576621       1.80893626       5.73571751         0.00000000       0.00000000       0.00000000          1
6
pbc=[F, F, F] list_num_par=6 frozen=false iter=20000 energy=-1.26974174 Lattice="15.00000000 0.00000000 0.00000000 0.00000000 15.00000000 0.00000000 0.00000000 0.00000000 15.00000000" energy_frozen_part=0.00000000 Properties=species:S:1:pos:R:3:velocities:R:3:Z:I:1
H         3.84769505       0.93982465       4.09528098         0.00000000       0.00000000       0.00000000          1
H         3.87798551       3.52306238       5.15841364         0.00000000       0.00000000       0.00000000          1
H         1.34614286       3.99768248       4.07731447         0.00000000       0.00000000       0.00000000          1
H         1.31585869       1.41444489       3.01417786         0.00000000       0.00000000       0.00000000          1
H         3.43152774       3.14177139       2.42719547         0.00000000       0.00000000       0.00000000          1
H         1.76231818       1.79573830       5.74540620         0.00000000       0.00000000       0.00000000          1
6
pbc=[F, F, F] list_num_par=6 frozen=false iter=20000 energy=-1.26974174 Lattice="15.00000000 0.00000000 0.00000000 0.00000000 15.00000000 0.00000000 0.00000000 0.00000000 15.00000000" energy_frozen_part=0.00000000 Properties=species:S:1:pos:R:3:velocities:R:3:Z:I:1
H         3.83850054       0.92900847       4.09776451         0.00000000       0.00000000       0.00000000          1
H         3.88831395       3.51638153       5.15006129         0.00000000       0.00000000       0.00000000          1
H         1.36491847       4.00932510       4.05746496         0.00000000       0.00000000       0.00000000          1
H         1.31511161       1.42195747       3.00516412         0.00000000       0.00000000       0.00000000          1
H         3.44855347       3.12751109       2.41882189         0.00000000       0.00000000       0.00000000          1
H         1.75487568       1.81083250       5.73640195         0.00000000       0.00000000       0.00000000          1
6
pbc=[F, F, F] list_num_par=6 frozen=false iter=20000 energy=-1.26974174 Lattice="15.00000000 0.00000000 0.00000000 0.00000000 15.00000000 0.00000000 0.00000000 0.00000000 15.00000000" energy_frozen_part=0.00000000 Properties=species:S:1:pos:R:3:velocities:R:3:Z:I:1
H         3.83769386       0.92840218       4.09486221         0.00000000       0.00000000       0.00000000          1
H         3.88820460       3.51526926       5.14835712         0.00000000       0.00000000       0.00000000          1
H         1.36368132       4.00841748       4.05845815         0.00000000       0.00000000       0.00000000          1
H         1.31317305       1.42155292       3.00496099         0.00000000       0.00000000       0.00000000          1
H         3.44582816       3.12766571       2.41735869         0.00000000       0.00000000       0.00000000          1
H         1.75555338       1.80916336       5.73596210         0.00000000       0.00000000       0.00000000          1
6
pbc=[F, F, F] list_num_par=6 frozen=false iter=20000 energy=-1.26974174 Lattice="15.00000000 0.00000000 0.00000000 0.00000000 15.00000000 0.00000000 0.00000000 0.00000000 15.00000000" energy_frozen_part=0.00000000 Properties=species:S:1:pos:R:3:velocities:R:3:Z:I:1
H         3.83849609       0.92902778       4.09782869         0.00000000       0.00000000       0.00000000          1
H         3.88824716       3.51641867       5.15007054         0.00000000       0.00000000       0.00000000          1
H         1.36485927       4.00929204       4.05743192         0.00000000       0.00000000       0.00000000          1
H         1.31511090       1.42189209       3.00518272         0.00000000       0.00000000       0.00000000          1
H         3.44853210       3.12747596       2.41883291         0.00000000       0.00000000       0.00000000          1
H         1.75482419       1.81084294       5.73642325         0.00000000       0.00000000       0.00000000          1
6
pbc=[F, F, F] list_num_par=6 frozen=false iter=20000 energy=-1.26974174 Lattice="15.00000000 0.00000000 0.00000000 0.00000000 15.00000000 0.00000000 0.00000000 0.00000000 15.00000000" energy_frozen_part=0.00000000 Properties=species:S:1:pos:R:3:velocities:R:3:Z:I:1
H         3.83857698       0.92907533       4.09781060         0.00000000       0.00000000       0.00000000          1
H         3.88820746       3.51645125       5.15009122         0.00000000       0.00000000       0.00000000          1
H         1.36481647       4.00925671       4.05742596         0.00000000       0.00000000       0.00000000          1
H         1.31518050       1.42187620       3.00513567         0.00000000       0.00000000       0.00000000          1
H         3.44854059       3.12753924       2.41884289         0.00000000       0.00000000       0.00000000          1
H         1.75484598       1.81079238       5.73638817         0.00000000       0.00000000       0.00000000          1
6
pbc=[F, F, F] list_num_par=6 frozen=false iter=20000 energy=-1.26974174 Lattice="15.00000000 0.00000000 0.00000000 0.00000000 15.00000000 0.00000000 0.00000000 0.00000000 15.00000000" energy_frozen_part=0.00000000 Properties=species:S:1:pos:R:3:velocities:R:3:Z:I:1
H         3.83898247       0.92835879       4.09658652         0.00000000       0.00000000       0.00000000          1
H         3.88880376       3.51527429       5.15001101         0.00000000       0.00000000       0.00000000          1
H         1.36492712       4.00832695       4.05857478         0.00000000       0.00000000       0.00000000          1
H         1.31510950       1.42141853       3.00514908         0.00000000       0.00000000       0.00000000          1
H         3.44807601       3.12754729       2.41876336         0.00000000       0.00000000       0.00000000          1
H         1.75582887       1.80914094       5.73639376         0.00000000       0.00000000       0.00000000          1
6
pbc=[F, F, F] list_num_par=6 frozen=false iter=20000 energy=-1.26974174 Lattice="15.00000000 0.00000000 0.00000000 0.00000000 15.00000000 0.00000000 0.00000000 0.00000000 15.00000000" energy_frozen_part=0.00000000 Properties=species:S:1:pos:R:3:velocities:R:3:Z:I:1
H         3.83893669       0.92837542       4.09662151         0.00000000       0.00000000       0.00000000          1
H         3.88876001       3.51528628       5.15004760         0.00000000       0.00000000       0.00000000          1
H         1.36489436       4.00834474       4.05860665         0.00000000       0.00000000       0.00000000          1
H         1.31506895       1.42144266       3.00517974         0.00000000       0.00000000       0.00000000          1
H         3.44805775       3.12755597       2.41880177         0.00000000       0.00000000       0.00000000          1
H         1.75578226       1.80916394       5.73642750         0.00000000       0.00000000       0.00000000          1
6
pbc=[F, F, F] list_num_par=6 frozen=false iter=20000 energy=-1.26974174 Lattice="15.00000000 0.00000000 0.00000000 0.00000000 15.00000000 0.00000000 0.00000000 0.00000000 15.00000000" energy_frozen_part=0.00000000 Properties=species:S:1:pos:R:3:velocities:R:3:Z:I:1
H         3.84767821       0.93982203       4.09527659         0.00000000       0.00000000       0.00000000          1
H         3.87800359       3.52305705       5.15840628         0.00000000       0.00000000       0.00000000          1
H         1.34615605       3.99769896       4.07730922         0.00000000       0.00000000       0.00000000          1
H         1.31583273       1.41446569       3.01416991         0.00000000       0.00000000       0.00000000          1
H         3.43152259       3.14176922       2.42718594         0.00000000       0.00000000       0.00000000          1
H         1.76230266       1.79575432       5.74539518         0.00000000       0.00000000       0.00000000          1
6
pbc=[F, F, F] list_num_par=6 frozen=false iter=20000 energy=-1.26974174 Lattice="15.00000000 0.00000000 0.00000000 0.00000000 15.00000000 0.00000000 0.00000000 0.00000000 15.00000000" energy_frozen_part=0.00000000 Properties=species:S:1:pos:R:3:velocities:R:3:Z:I:1
H         3.83851030       0.92901357       4.09779089         0.00000000       0.00000000       0.00000000          1
H         3.88828876       3.51639484       5.15006820         0.00000000       0.00000000       0.00000000          1