6
pbc=[F, F, F] list_num_par=6 frozen=false iter=9 energy=73.59854824 Lattice="15.00000000 0.00000000 0.00000000 0.00000000 15.00000000 0.00000000 0.00000000 0.00000000 15.00000000" energy_frozen_part=0.00000000 Properties=species:S:1:pos:R:3:velocities:R:3:Z:I:1
H         1.60740247      12.03584938       3.88562278         0.00000000       0.00000000       0.00000000          1
H         9.80586831       4.93718172      12.43109171         0.00000000       0.00000000       0.00000000          1
H         8.70623578       1.01487009      11.15010566         0.00000000       0.00000000       0.00000000          1
H         4.65587317       8.86934546       5.98546732         0.00000000       0.00000000       0.00000000          1
H         2.57713541      13.31693829       3.80235127         0.00000000       0.00000000       0.00000000          1
H         2.46863724      13.00552677      10.50417450         0.00000000       0.00000000       0.00000000          1
6
pbc=[F, F, F] list_num_par=6 frozen=false iter=19 energy=0.95977029 Lattice="15.00000000 0.00000000 0.00000000 0.00000000 15.00000000 0.00000000 0.00000000 0.00000000 15.00000000" energy_frozen_part=0.00000000 Properties=species:S:1:pos:R:3:velocities:R:3:Z:I:1
H         8.16627812      10.01741417      14.49634539         0.00000000       0.00000000       0.00000000          1
H         8.08267457       7.28394321       0.81998114         0.00000000       0.00000000       0.00000000          1
H         8.40397541       0.07258436       7.03705201         0.00000000       0.00000000       0.00000000          1
H        13.28241001      13.64509163       4.72427406         0.00000000       0.00000000       0.00000000          1
H         9.73110137       4.64452802       4.53532322         0.00000000       0.00000000       0.00000000          1
H         9.28594934       8.95070232      12.92751201         0.00000000       0.00000000       0.00000000          1
6
pbc=[F, F, F] list_num_par=6 frozen=false iter=29 energy=-0.00150265 Lattice="15.00000000 0.00000000 0.00000000 0.00000000 15.00000000 0.00000000 0.00000000 0.00000000 15.00000000" energy_frozen_part=0.00000000 Properties=species:S:1:pos:R:3:velocities:R:3:Z:I:1
H         2.77866361       4.68158514       5.16989919         0.00000000       0.00000000       0.00000000          1
H         5.40398232       5.44015040      14.07354142         0.00000000       0.00000000       0.00000000          1
H        14.84930677      13.45827033      12.39765716         0.00000000       0.00000000       0.00000000          1
H         3.18143166      11.20021402       6.32390359         0.00000000       0.00000000       0.00000000          1
H        10.75429084      14.64285484       1.02637773         0.00000000       0.00000000       0.00000000          1
H        11.09289505       3.30781810       9.20863461         0.00000000       0.00000000       0.00000000          1
6
pbc=[F, F, F] list_num_par=6 frozen=false iter=39 energy=-0.00385372 Lattice="15.00000000 0.00000000 0.00000000 0.00000000 15.00000000 0.00000000 0.00000000 0.00000000 15.00000000" energy_frozen_part=0.00000000 Properties=species:S:1:pos:R:3:velocities:R:3:Z:I:1
H        11.34070480       1.79717557       4.58110314         0.00000000       0.00000000       0.00000000          1
H         7.65573693      14.74845427      12.60745921         0.00000000       0.00000000       0.00000000          1
H         1.99982334       0.34242916       7.24708852         0.00000000       0.00000000       0.00000000          1
H        13.81577733      11.68612935       7.43174243         0.00000000       0.00000000       0.00000000          1
H        14.90972252       3.28422924       0.71812237         0.00000000       0.00000000       0.00000000          1
H         1.65127378       8.71793630       6.08632915         0.00000000       0.00000000       0.00000000          1
6
pbc=[F, F, F] list_num_par=6 frozen=false iter=49 energy=-0.00611098 Lattice="15.00000000 0.00000000 0.00000000 0.00000000 15.00000000 0.00000000 0.00000000 0.00000000 15.00000000" energy_frozen_part=0.00000000 Properties=species:S:1:pos:R:3:velocities:R:3:Z:I:1
H         2.79541001       5.57208490       1.74494569         0.00000000       0.00000000       0.00000000          1
H         5.06586438      14.51224112       8.90288283         0.00000000       0.00000000       0.00000000          1
H         8.10193722      12.57061827      14.75735746         0.00000000       0.00000000       0.00000000          1
H         2.17557638      10.43223505      12.69479577         0.00000000       0.00000000       0.00000000          1
H        13.92028140       4.75138479       6.23392950         0.00000000       0.00000000       0.00000000          1
H         1.89804862      11.39963748       4.23986115         0.00000000       0.00000000       0.00000000          1
6
pbc=[F, F, F] list_num_par=6 frozen=false iter=59 energy=-0.00708459 Lattice="15.00000000 0.00000000 0.00000000 0.00000000 15.00000000 0.00000000 0.00000000 0.00000000 15.00000000" energy_frozen_part=0.00000000 Properties=species:S:1:pos:R:3:velocities:R:3:Z:I:1
H        12.09594435      13.85346633       4.42797846         0.00000000       0.00000000       0.00000000          1
H         4.87078483      13.17406501       8.21367530         0.00000000       0.00000000       0.00000000          1
H        14.19497001       6.21613713       3.37155502         0.00000000       0.00000000       0.00000000          1
H         8.49291116       3.25791961      11.09094399         0.00000000       0.00000000       0.00000000          1
H         6.15724435       0.00593972       6.97245444         0.00000000       0.00000000       0.00000000          1
H         8.67439379       7.45432237       4.56679065         0.00000000       0.00000000       0.00000000          1
6
pbc=[F, F, F] list_num_par=6 frozen=false iter=69 energy=-0.01120866 Lattice="15.00000000 0.00000000 0.00000000 0.00000000 15.00000000 0.00000000 0.00000000 0.00000000 15.00000000" energy_frozen_part=0.00000000 Properties=species:S:1:pos:R:3:velocities:R:3:Z:I:1
H         2.65485541       5.03218158       6.06431706         0.00000000       0.00000000       0.00000000          1
H        12.72342395       3.70276829       3.04861978         0.00000000       0.00000000       0.00000000          1
H        14.09142051       3.74653324      10.42162263         0.00000000       0.00000000       0.00000000          1
H        10.21532182       1.85824167       7.04174702         0.00000000       0.00000000       0.00000000          1
H         6.45211429      11.88195093       0.05792253         0.00000000       0.00000000       0.00000000          1
H         1.76416286       2.20006699       0.49722097         0.00000000       0.00000000       0.00000000          1
6
pbc=[F, F, F] list_num_par=6 frozen=false iter=79 energy=-0.01296865 Lattice="15.00000000 0.00000000 0.00000000 0.00000000 15.00000000 0.00000000 0.00000000 0.00000000 15.00000000" energy_frozen_part=0.00000000 Properties=species:S:1:pos:R:3:velocities:R:3:Z:I:1
H         2.72330289       9.06541833      11.15993343         0.00000000       0.00000000       0.00000000          1
H        12.30399835      14.92696830       4.90509816         0.00000000       0.00000000       0.00000000          1
H         5.68354848       3.85648076      12.67629604         0.00000000       0.00000000       0.00000000          1
H        11.71686769       4.86644027       1.78927880         0.00000000       0.00000000       0.00000000          1
H         3.17110020      13.92689712       4.38806045         0.00000000       0.00000000       0.00000000          1
H         9.84926547       6.43280602       5.61665814         0.00000000       0.00000000       0.00000000          1
6
pbc=[F, F, F] list_num_par=6 frozen=false iter=89 energy=-0.01693049 Lattice="15.00000000 0.00000000 0.00000000 0.00000000 15.00000000 0.00000000 0.00000000 0.00000000 15.00000000" energy_frozen_part=0.00000000 Properties=species:S:1:pos:R:3:velocities:R:3:Z:I:1
H         0.62953209      13.54458846       2.61176036         0.00000000       0.00000000       0.00000000          1
H         5.68397479       1.07618665       2.29744040         0.00000000       0.00000000       0.00000000          1
H        12.41855977       0.24973171       0.73026623         0.00000000       0.00000000       0.00000000          1
H         5.80862891       1.70315953       7.37344564         0.00000000       0.00000000       0.00000000          1
H         9.22532440      12.69136627       9.66355578         0.00000000       0.00000000       0.00000000          1
H        10.87928096      14.43847513      13.50366167         0.00000000       0.00000000       0.00000000          1
6
pbc=[F, F, F] list_num_par=6 frozen=false iter=99 energy=-0.02146235 Lattice="15.00000000 0.00000000 0.00000000 0.00000000 15.00000000 0.00000000 0.00000000 0.00000000 15.00000000" energy_frozen_part=0.00000000 Properties=species:S:1:pos:R:3:velocities:R:3:Z:I:1
H         4.30166677      12.10459413       5.56861652         0.00000000       0.00000000       0.00000000          1
H         4.65528880       1.87268218      11.48424343         0.00000000       0.00000000       0.00000000          1
H        12.99984161       7.56456967       0.21424855         0.00000000       0.00000000       0.00000000          1
H         7.23606374      10.37082808       1.65068767         0.00000000       0.00000000       0.00000000          1
H        12.81172824       2.02536005      11.44528080         0.00000000       0.00000000       0.00000000          1
H         2.19538882       5.28628534      12.23512310         0.00000000       0.00000000       0.00000000          1
6
pbc=[F, F, F] list_num_par=6 frozen=false iter=109 energy=-0.02532821 Lattice="15.00000000 0.00000000 0.00000000 0.00000000 15.00000000 0.00000000 0.00000000 0.00000000 15.00000000" energy_frozen_part=0.00000000 Properties=species:S:1:pos:R:3:velocities:R:3:Z:I:1
H         3.08156741      12.08273981       8.84377173         0.00000000       0.00000000       0.00000000          1
H         6.10362501       3.16246420      13.96900945         0.00000000       0.00000000       0.00000000          1
H         7.64706206       0.66577848       2.42874498         0.00000000       0.00000000       0.00000000          1
H         0.90714151      10.66348228      14.82615420         0.00000000       0.00000000       0.00000000          1
H        11.53651347       2.41505257      11.44603031         0.00000000       0.00000000       0.00000000          1
H         8.39315879       6.08016077      11.77933490         0.00000000       0.00000000       0.00000000          1
6
pbc=[F, F, F] list_num_par=6 frozen=false iter=119 energy=-0.02803355 Lattice="15.00000000 0.00000000 0.00000000 0.00000000 15.00000000 0.00000000 0.00000000 0.00000000 15.00000000" energy_frozen_part=0.00000000 Properties=species:S:1:pos:R:3:velocities:R:3:Z:I:1
H         0.38659892      12.69853402       7.81066717         0.00000000       0.00000000       0.00000000          1
H         7.17686228       1.74655000       9.58149397         0.00000000       0.00000000       0.00000000          1
H         3.09637084       0.71922834       0.43304891         0.00000000       0.00000000       0.00000000          1
H         7.11103844       2.56031538       1.92443056         0.00000000       0.00000000       0.00000000          1
H         8.34604571      11.41517236       3.42388344         0.00000000       0.00000000       0.00000000          1
H         7.76774079      14.51102952       0.73493421         0.00000000       0.00000000       0.00000000          1
6
pbc=[F, F, F] list_num_par=6 frozen=false iter=129 energy=-0.03262644 Lattice="15.00000000 0.00000000 0.00000000 0.00000000 15.00000000 0.00000000 0.00000000 0.00000000 15.00000000" energy_frozen_part=0.00000000 Properties=species:S:1:pos:R:3:velocities:R:3:Z:I:1
H        10.88187855      14.24313001       2.83298409         0.00000000       0.00000000       0.00000000          1
H         1.31406461      13.69277321       9.55586636         0.00000000       0.00000000       0.00000000          1
H         8.08854558      13.26868084       5.90900235         0.00000000       0.00000000       0.00000000          1
H         5.88690803       6.04141484       9.20777164         0.00000000       0.00000000       0.00000000          1
H         4.00273861      14.80049010       4.99530518         0.00000000       0.00000000       0.00000000          1
H         0.00810550       2.82826977       4.52579308         0.00000000       0.00000000       0.00000000          1
6
pbc=[F, F, F] list_num_par=6 frozen=false iter=139 energy=-0.03784847 Lattice="15.00000000 0.00000000 0.00000000 0.00000000 15.00000000 0.00000000 0.00000000 0.00000000 15.00000000" energy_frozen_part=0.00000000 Properties=species:S:1:pos:R:3:velocities:R:3:Z:I:1
H         6.47138614       0.42422549       7.93882303         0.00000000       0.00000000       0.00000000          1
H         4.86855302       5.31704527       5.37537707         0.00000000       0.00000000       0.00000000          1
H         2.63989243       3.42891071      14.47502122         0.00000000       0.00000000       0.00000000          1
H        14.40894003      12.76691890      11.28470045         0.00000000       0.00000000       0.00000000          1
H         1.41420738       4.27066570      11.06531486         0.00000000       0.00000000       0.00000000          1
H        13.80296568       0.19027772      14.38187111         0.00000000       0.00000000       0.00000000          1
6
pbc=[F, F, F] list_num_par=6 frozen=false iter=149 energy=-0.04045498 Lattice="15.00000000 0.00000000 0.00000000 0.00000000 15.00000000 0.00000000 0.00000000 0.00000000 15.00000000" energy_frozen_part=0.00000000 Properties=species:S:1:pos:R:3:velocities:R:3:Z:I:1
H        12.18162205       5.32075548       3.33552441         0.00000000       0.00000000       0.00000000          1
H        11.53778545       8.59087556       1.52787734         0.00000000       0.00000000       0.00000000          1
H         5.12058105       5.87978580       8.29777127         0.00000000       0.00000000       0.00000000          1
H        11.56561012       8.45763708       7.17400195         0.00000000       0.00000000       0.00000000          1
H        13.55418117       4.09871455      13.08958325         0.00000000       0.00000000       0.00000000          1
H         2.54536548       3.07090263       0.47099944         0.00000000       0.00000000       0.00000000          1
6
pbc=[F, F, F] list_num_par=6 frozen=false iter=159 energy=-0.04485986 Lattice="15.00000000 0.00000000 0.00000000 0.00000000 15.00000000 0.00000000 0.00000000 0.00000000 15.00000000" energy_frozen_part=0.00000000 Properties=species:S:1:pos:R:3:velocities:R:3:Z:I:1
H         7.23572299       4.66114254      10.22656156         0.00000000       0.00000000       0.00000000          1
H         1.87671598       0.78229699      12.23975575         0.00000000       0.00000000       0.00000000          1
H         1.25937603       0.77413638       5.08791216         0.00000000       0.00000000       0.00000000          1
H         5.14414477       2.18415317       1.11395875         0.00000000       0.00000000       0.00000000          1
H        12.27555168      11.12174171      13.97001801         0.00000000       0.00000000       0.00000000          1
H        10.56340594       4.83460112      11.58623674         0.00000000       0.00000000       0.00000000          1
6
pbc=[F, F, F] list_num_par=6 frozen=false iter=169 energy=-0.05306422 Lattice="15.00000000 0.00000000 0.00000000 0.00000000 15.00000000 0.00000000 0.00000000 0.00000000 15.00000000" energy_frozen_part=0.00000000 Properties=species:S:1:pos:R:3:velocities:R:3:Z:I:1
H         0.78504758       9.58552232       5.63681488         0.00000000       0.00000000       0.00000000          1
H        12.43095844      14.98354505      10.56397721         0.00000000       0.00000000       0.00000000          1
H         4.70527969       7.95895236       1.38606550         0.00000000       0.00000000       0.00000000          1
H         2.44905694       6.59401288      13.87947300         0.00000000       0.00000000       0.00000000          1
H         1.71690813      11.06030856      14.69618241         0.00000000       0.00000000       0.00000000          1
H        11.54651885      12.04166069       8.72793515         0.00000000       0.00000000       0.00000000          1
6
pbc=[F, F, F] list_num_par=6 frozen=false iter=179 energy=-0.05643839 Lattice="15.00000000 0.00000000 0.00000000 0.00000000 15.00000000 0.00000000 0.00000000 0.00000000 15.00000000" energy_frozen_part=0.00000000 Properties=species:S:1:pos:R:3:velocities:R:3:Z:I:1
H         8.84113863      13.73055193       6.10280703         0.00000000       0.00000000       0.00000000          1
H         8.46019998       3.25849443      11.78005194         0.00000000       0.00000000       0.00000000          1
H         5.74616769       5.62291298      12.61416193         0.00000000       0.00000000       0.00000000          1
H         0.79760066       3.81190449      11.23746380         0.00000000       0.00000000       0.00000000          1
H         0.01492899       4.79209085       3.64685796         0.00000000       0.00000000       0.00000000          1
H         7.60389114      14.30228409       2.15636365         0.00000000       0.00000000       0.00000000          1
6
pbc=[F, F, F] list_num_par=6 frozen=false iter=189 energy=-0.06173856 Lattice="15.00000000 0.00000000 0.00000000 0.00000000 15.00000000 0.00000000 0.00000000 0.00000000 15.00000000" energy_frozen_part=0.00000000 Properties=species:S:1:pos:R:3:velocities:R:3:Z:I:1
H         1.28107292       7.53954657       4.35422079         0.00000000       0.00000000       0.00000000          1
H        12.46432874      11.72359420      12.13444538         0.00000000       0.00000000       0.00000000          1
H         1.87314585      12.12132458      11.18873064         0.00000000       0.00000000       0.00000000          1
H        10.79465918       9.05162139      10.67709825         0.00000000       0.00000000       0.00000000          1
H         6.78931828      10.93077923       2.04708513         0.00000000       0.00000000       0.00000000          1
H         7.78112976       8.85559069       6.33054047         0.00000000       0.00000000       0.00000000          1
6
pbc=[F, F, F] list_num_par=6 frozen=false iter=199 energy=-0.06675899 Lattice="15.00000000 0.00000000 0.00000000 0.00000000 15.00000000 0.00000000 0.00000000 0.00000000 15.00000000" energy_frozen_part=0.00000000 Properties=species:S:1:pos:R:3:velocities:R:3:Z:I:1
H        12.37490613       3.66447000       0.98118265         0.00000000       0.00000000       0.00000000          1
H         3.57770248      10.31905212       6.47457422         0.00000000       0.00000000       0.00000000          1
H         9.02154288       7.72764571       4.24297104         0.00000000       0.00000000       0.00000000          1
H        14.83032587       4.22606030       0.83834187         0.00000000       0.00000000       0.00000000          1
H        12.64712086       8.21702436       3.88275725         0.00000000       0.00000000       0.00000000          1
H         0.35619656       7.98346908       0.28050001         0.00000000       0.00000000       0.00000000          1
6
pbc=[F, F, F] list_num_par=6 frozen=false iter=209 energy=-0.07415057 Lattice="15.00000000 0.00000000 0.00000000 0.00000000 15.00000000 0.00000000 0.00000000 0.00000000 15.00000000" energy_frozen_part=0.00000000 Properties=species:S:1:pos:R:3:velocities:R:3:Z:I:1
H         9.61329081       7.52467796       7.08607729         0.00000000       0.00000000       0.00000000          1
H         5.27604942       5.08899193       0.46613722         0.00000000       0.00000000       0.00000000          1
H        11.50047435       9.03570462       4.86827631         0.00000000       0.00000000       0.00000000          1
H        13.92178878       6.76834870       0.57208838         0.00000000       0.00000000       0.00000000          1
H        14.90108756      12.83823090       4.30481948         0.00000000       0.00000000       0.00000000          1
H         1.65688468      10.39029054       3.45064223         0.00000000       0.00000000       0.00000000          1
6
pbc=[F, F, F] list_num_par=6 frozen=false iter=219 energy=-0.07862974 Lattice="15.00000000 0.00000000 0.00000000 0.00000000 15.00000000 0.00000000 0.00000000 0.00000000 15.00000000" energy_frozen_part=0.00000000 Properties=species:S:1:pos:R:3:velocities:R:3:Z:I:1
H        13.60158790       2.24578772       8.00700143         0.00000000       0.00000000       0.00000000          1
H         0.46467401       3.44045177       7.12371035         0.00000000       0.00000000       0.00000000          1
H         0.34944110       5.23302647      14.33606714         0.00000000       0.00000000       0.00000000          1
H        13.29314316      12.93999087       4.85155020         0.00000000       0.00000000       0.00000000          1
H         4.89099233       3.74936708      13.54420383         0.00000000       0.00000000       0.00000000          1
H        11.53784676       1.33268213      10.27611514         0.00000000       0.00000000       0.00000000          1
6
pbc=[F, F, F] list_num_par=6 frozen=false iter=229 energy=-0.08401753 Lattice="15.00000000 0.00000000 0.00000000 0.00000000 15.00000000 0.00000000 0.00000000 0.00000000 15.00000000" energy_frozen_part=0.00000000 Properties=species:S:1:pos:R:3:velocities:R:3:Z:I:1
H         3.36140811      11.44343427       1.84014064         0.00000000       0.00000000       0.00000000          1
H        14.00340493       6.05468879      14.66152399         0.00000000       0.00000000       0.00000000          1
H         2.50318879      13.97600132      10.54257774         0.00000000       0.00000000       0.00000000          1
H         6.73264904      11.32061114       9.69238750         0.00000000       0.00000000       0.00000000          1
H         5.96992590      11.14153623       3.76758645         0.00000000       0.00000000       0.00000000          1
H        10.30076500      10.00167452       5.40301793         0.00000000       0.00000000       0.00000000          1
6
pbc=[F, F, F] list_num_par=6 frozen=false iter=239 energy=-0.08885490 Lattice="15.00000000 0.00000000 0.00000000 0.00000000 15.00000000 0.00000000 0.00000000 0.00000000 15.00000000" energy_frozen_part=0.00000000 Properties=species:S:1:pos:R:3:velocities:R:3:Z:I:1
H         4.77689072       0.54507115       7.28646152         0.00000000       0.00000000       0.00000000          1
H        12.71950249       5.41231172       9.16598423         0.00000000       0.00000000       0.00000000          1
H         6.76863746       0.88173706      10.80334106         0.00000000       0.00000000       0.00000000          1
H        12.80093873       7.46774239      10.65817365         0.00000000       0.00000000       0.00000000          1
H         4.72176921       1.00555711       3.00536524         0.00000000       0.00000000       0.00000000          1
H        10.29914215       4.57993130      13.32564985         0.00000000       0.00000000       0.00000000          1
6
pbc=[F, F, F] list_num_par=6 frozen=false iter=249 energy=-0.09650895 Lattice="15.00000000 0.00000000 0.00000000 0.00000000 15.00000000 0.00000000 0.00000000 0.00000000 15.00000000" energy_frozen_part=0.00000000 Properties=species:S:1:pos:R:3:velocities:R:3:Z:I:1
H         2.41656891      11.61185116       2.87577897         0.00000000       0.00000000       0.00000000          1
H         4.71821102      14.64793276       0.11495625         0.00000000       0.00000000       0.00000000          1
H         8.29015216      13.34268608       8.37751158         0.00000000       0.00000000       0.00000000          1
H         0.01597586       3.47237169      14.00453512         0.00000000       0.00000000       0.00000000          1
H         1.03782709       9.53162546       4.57891530         0.00000000       0.00000000       0.00000000          1
H         6.62084019       0.07465605       1.98329175         0.00000000       0.00000000       0.00000000          1
6
pbc=[F, F, F] list_num_par=6 frozen=false iter=259 energy=-0.09833511 Lattice="15.00000000 0.00000000 0.00000000 0.00000000 15.00000000 0.00000000 0.00000000 0.00000000 15.00000000" energy_frozen_part=0.00000000 Properties=species:S:1:pos:R:3:velocities:R:3:Z:I:1
H        14.02829450       0.79009211       2.42723308         0.00000000       0.00000000       0.00000000          1
H         8.86668030      11.83266498       9.32950943         0.00000000       0.00000000       0.00000000          1
H         5.48368382       3.30559244       5.50841843         0.00000000       0.00000000       0.00000000          1
H        13.53332391       4.01577689       3.84887286         0.00000000       0.00000000       0.00000000          1
H        12.58587118       6.49486484       0.48407191         0.00000000       0.00000000       0.00000000          1
H         3.47886329       5.79021946       3.82423179         0.00000000       0.00000000       0.00000000          1
6
pbc=[F, F, F] list_num_par=6 frozen=false iter=269 energy=-0.10141123 Lattice="15.00000000 0.00000000 0.00000000 0.00000000 15.00000000 0.00000000 0.00000000 0.00000000 15.00000000" energy_frozen_part=0.00000000 Properties=species:S:1:pos:R:3:velocities:R:3:Z:I:1
H         0.02907296       6.55375358       5.80883596         0.00000000       0.00000000       0.00000000          1
H        10.96622261       6.70152198      12.69737205         0.00000000       0.00000000       0.00000000          1
H        10.88770905       1.24082291       8.15082199         0.00000000       0.00000000       0.00000000          1
H        12.50542932       7.62416621       5.00158558         0.00000000       0.00000000       0.00000000          1
H         8.37261106       1.85455505       7.22592069         0.00000000       0.00000000       0.00000000          1
H        13.53689245      14.30155027       4.04230911         0.00000000       0.00000000       0.00000000          1
6
pbc=[F, F, F] list_num_par=6 frozen=false iter=279 energy=-0.10333074 Lattice="15.00000000 0.00000000 0.00000000 0.00000000 15.00000000 0.00000000 0.00000000 0.00000000 15.00000000" energy_frozen_part=0.00000000 Properties=species:S:1:pos:R:3:velocities:R:3:Z:I:1
H         9.58543152       5.40194779       9.56335353         0.00000000       0.00000000       0.00000000          1
H        14.60577565       9.22347702       3.79307149         0.00000000       0.00000000       0.00000000          1
H         6.97412823       6.14390580      11.11520034         0.00000000       0.00000000       0.00000000          1
H         2.85119913       3.14655118      10.61471603         0.00000000       0.00000000       0.00000000          1
H         6.85442690       4.56850992       4.76267485         0.00000000       0.00000000       0.00000000          1
H         1.40197753       2.59367324      14.61811335         0.00000000       0.00000000       0.00000000          1
6
pbc=[F, F, F] list_num_par=6 frozen=false iter=289 energy=-0.10549794 Lattice="15.00000000 0.00000000 0.00000000 0.00000000 15.00000000 0.00000000 0.00000000 0.00000000 15.00000000" energy_frozen_part=0.00000000 Properties=species:S:1:pos:R:3:velocities:R:3:Z:I:1
H         1.94387966       8.76156211       5.45769006         0.00000000       0.00000000       0.00000000          1
H         6.69338926      14.07019022       4.46818082         0.00000000       0.00000000       0.00000000          1
H         2.33082950       4.47545273      14.72760199         0.00000000       0.00000000       0.00000000          1
H         8.57785728       4.70417365      11.35702813         0.00000000       0.00000000       0.00000000          1
H         4.88091490      14.94979391       0.23682353         0.00000000       0.00000000       0.00000000          1
H         3.22426603       5.05305813      11.94650844         0.00000000       0.00000000       0.00000000          1
6
pbc=[F, F, F] list_num_par=6 frozen=false iter=299 energy=-0.11030150 Lattice="15.00000000 0.00000000 0.00000000 0.00000000 15.00000000 0.00000000 0.00000000 0.00000000 15.00000000" energy_frozen_part=0.00000000 Properties=species:S:1:pos:R:3:velocities:R:3:Z:I:1
H         3.37226915       5.51647697       8.79597991         0.00000000       0.00000000       0.00000000          1
H         5.78482878       8.98768270      12.48133348         0.00000000       0.00000000       0.00000000          1
H         7.68417974      13.81483116      14.22977032         0.00000000       0.00000000       0.00000000          1
H         1.54464451       3.58522444      10.85770530         0.00000000       0.00000000       0.00000000          1
H         7.68252911      11.02430479      10.17538530         0.00000000       0.00000000       0.00000000          1
H        10.93021759       3.71170094      11.13639030         0.00000000       0.00000000       0.00000000          1
6
pbc=[F, F, F] list_num_par=6 frozen=false iter=309 energy=-0.11446330 Lattice="15.00000000 0.00000000 0.00000000 0.00000000 15.00000000 0.00000000 0.00000000 0.00000000 15.00000000" energy_frozen_part=0.00000000 Properties=species:S:1:pos:R:3:velocities:R:3:Z:I:1
H         0.83124763      10.79326532       8.99036276         0.00000000       0.00000000       0.00000000          1
H         8.48184832      10.31917873      14.55396318         0.00000000       0.00000000       0.00000000          1