6
pbc=[F, F, F] list_num_par=6 frozen=false iter=20000 energy=-1.26974174 Lattice="15.00000000 0.00000000 0.00000000 0.00000000 15.00000000 0.00000000 0.00000000 0.00000000 15.00000000" energy_frozen_part=0.00000000 Properties=species:S:1:pos:R:3:velocities:R:3:Z:I:1
H        10.79602998       5.88423763       1.21493977         0.00000000       0.00000000       0.00000000          1
H         8.51337549       6.44897039       2.72319892         0.00000000       0.00000000       0.00000000          1
H         9.20293189       9.15597937       2.75321630         0.00000000       0.00000000       0.00000000          1
H        11.02862664       7.23951478       3.64669023         0.00000000       0.00000000       0.00000000          1
H        11.48558800       8.59124694       1.24496157         0.00000000       0.00000000       0.00000000          1
H         8.97034252       7.80069584       0.32146908         0.00000000       0.00000000       0.00000000          1
6
pbc=[F, F, F] list_num_par=6 frozen=false iter=20000 energy=-1.26974174 Lattice="15.00000000 0.00000000 0.00000000 0.00000000 15.00000000 0.00000000 0.00000000 0.00000000 15.00000000" energy_frozen_part=0.00000000 Properties=species:S:1:pos:R:3:velocities:R:3:Z:I:1
H        10.79611973       5.88422108       1.21500730         0.00000000       0.00000000       0.00000000          1
H         8.51344270       6.44894035       2.72323893         0.00000000       0.00000000       0.00000000          1
H         9.20296322       9.15596240       2.75323679         0.00000000       0.00000000       0.00000000          1
H        11.02866908       7.23953055       3.64674424         0.00000000       0.00000000       0.00000000          1
H        11.48564148       8.59123617       1.24500428         0.00000000       0.00000000       0.00000000          1
H         8.97040890       7.80065418       0.32150524         0.00000000       0.00000000       0.00000000          1
6
pbc=[F, F, F] list_num_par=6 frozen=false iter=20000 energy=-1.26974174 Lattice="15.00000000 0.00000000 0.00000000 0.00000000 15.00000000 0.00000000 0.00000000 0.00000000 15.00000000" energy_frozen_part=0.00000000 Properties=species:S:1:pos:R:3:velocities:R:3:Z:I:1
H        10.79604018       5.88320324       1.20751587         0.00000000       0.00000000       0.00000000          1
H         8.51524415       6.45111750       2.71739030         0.00000000       0.00000000       0.00000000          1
H         9.21738136       9.15470625       2.76110582         0.00000000       0.00000000       0.00000000          1
H        11.03366049       7.22538548       3.64603273         0.00000000       0.00000000       0.00000000          1
H        11.49817399       8.58678878       1.25122776         0.00000000       0.00000000       0.00000000          1
H         8.97975095       7.81252727       0.32258662         0.00000000       0.00000000       0.00000000          1
6
pbc=[F, F, F] list_num_par=6 frozen=false iter=20000 energy=-1.26974174 Lattice="15.00000000 0.00000000 0.00000000 0.00000000 15.00000000 0.00000000 0.00000000 0.00000000 15.00000000" energy_frozen_part=0.00000000 Properties=species:S:1:pos:R:3:velocities:R:3:Z:I:1
H        10.79603895       5.88322623       1.20749674         0.00000000       0.00000000       0.00000000          1
H         8.51524628       6.45112379       2.71738895         0.00000000       0.00000000       0.00000000          1
H         9.21737625       9.15471177       2.76112776         0.00000000       0.00000000       0.00000000          1
H        11.03366418       7.22537887       3.64603457         0.00000000       0.00000000       0.00000000          1
H        11.49816589       8.58681350       1.25123901         0.00000000       0.00000000       0.00000000          1
H         8.97974571       7.81255457       0.32260165         0.00000000       0.00000000       0.00000000          1
6
pbc=[F, F, F] list_num_par=6 frozen=false iter=20000 energy=-1.26974174 Lattice="15.00000000 0.00000000 0.00000000 0.00000000 15.00000000 0.00000000 0.00000000 0.00000000 15.00000000" energy_frozen_part=0.00000000 Properties=species:S:1:pos:R:3:velocities:R:3:Z:I:1
H        10.79581605       5.88420604       1.21493276         0.00000000       0.00000000       0.00000000          1
H         8.51328375       6.44908776       2.72331689         0.00000000       0.00000000       0.00000000          1
H         9.20299726       9.15605663       2.75326826         0.00000000       0.00000000       0.00000000          1
H        11.02863275       7.23949832       3.64665586         0.00000000       0.00000000       0.00000000          1
H        11.48552759       8.59117316       1.24487617         0.00000000       0.00000000       0.00000000          1
H         8.97017292       7.80076487       0.32154866         0.00000000       0.00000000       0.00000000          1
6
pbc=[F, F, F] list_num_par=6 frozen=false iter=20000 energy=-1.26974174 Lattice="15.00000000 0.00000000 0.00000000 0.00000000 15.00000000 0.00000000 0.00000000 0.00000000 15.00000000" energy_frozen_part=0.00000000 Properties=species:S:1:pos:R:3:velocities:R:3:Z:I:1
H        10.79604434       5.88321544       1.20749926         0.00000000       0.00000000       0.00000000          1
H         8.51525749       6.45112452       2.71739120         0.00000000       0.00000000       0.00000000          1
H         9.21739132       9.15471301       2.76112535         0.00000000       0.00000000       0.00000000          1
H        11.03368320       7.22537962       3.64602383         0.00000000       0.00000000       0.00000000          1
H        11.49817711       8.58680182       1.25122785         0.00000000       0.00000000       0.00000000          1
H         8.97974714       7.81255073       0.32259961         0.00000000       0.00000000       0.00000000          1
6
pbc=[F, F, F] list_num_par=6 frozen=false iter=20000 energy=-1.26974174 Lattice="15.00000000 0.00000000 0.00000000 0.00000000 15.00000000 0.00000000 0.00000000 0.00000000 15.00000000" energy_frozen_part=0.00000000 Properties=species:S:1:pos:R:3:velocities:R:3:Z:I:1
H        10.79605725       5.88425193       1.21491558         0.00000000       0.00000000       0.00000000          1
H         8.51340684       6.44894071       2.72320428         0.00000000       0.00000000       0.00000000          1
H         9.20291065       9.15596547       2.75321904         0.00000000       0.00000000       0.00000000          1
H        11.02865143       7.23952931       3.64666484         0.00000000       0.00000000       0.00000000          1
H        11.48555923       8.59128024       1.24493533         0.00000000       0.00000000       0.00000000          1
H         8.97031625       7.80068049       0.32147270         0.00000000       0.00000000       0.00000000          1
6
pbc=[F, F, F] list_num_par=6 frozen=false iter=20000 energy=-1.26974174 Lattice="15.00000000 0.00000000 0.00000000 0.00000000 15.00000000 0.00000000 0.00000000 0.00000000 15.00000000" energy_frozen_part=0.00000000 Properties=species:S:1:pos:R:3:velocities:R:3:Z:I:1
H        10.79612938       5.88325889       1.20757822         0.00000000       0.00000000       0.00000000          1
H         8.51531796       6.45108036       2.71747147         0.00000000       0.00000000       0.00000000          1
H         9.21732646       9.15469950       2.76115929         0.00000000       0.00000000       0.00000000          1
H        11.03371313       7.22546720       3.64608030         0.00000000       0.00000000       0.00000000          1
H        11.49813154       8.58687500       1.25126008         0.00000000       0.00000000       0.00000000          1
H         8.97973750       7.81248600       0.32265387         0.00000000       0.00000000       0.00000000          1
6
pbc=[F, F, F] list_num_par=6 frozen=false iter=20000 energy=-1.26974174 Lattice="15.00000000 0.00000000 0.00000000 0.00000000 15.00000000 0.00000000 0.00000000 0.00000000 15.00000000" energy_frozen_part=0.00000000 Properties=species:S:1:pos:R:3:velocities:R:3:Z:I:1
H        10.79603452       5.88320637       1.20750314         0.00000000       0.00000000       0.00000000          1
H         8.51525283       6.45112783       2.71739267         0.00000000       0.00000000       0.00000000          1
H         9.21739568       9.15471406       2.76111710         0.00000000       0.00000000       0.00000000          1
H        11.03367864       7.22538160       3.64602962         0.00000000       0.00000000       0.00000000          1
H        11.49818073       8.58679160       1.25122946         0.00000000       0.00000000       0.00000000          1
H         8.97975471       7.81254725       0.32259260         0.00000000       0.00000000       0.00000000          1
6
pbc=[F, F, F] list_num_par=6 frozen=false iter=20000 energy=-1.26974174 Lattice="15.00000000 0.00000000 0.00000000 0.00000000 15.00000000 0.00000000 0.00000000 0.00000000 15.00000000" energy_frozen_part=0.00000000 Properties=species:S:1:pos:R:3:velocities:R:3:Z:I:1
H        10.79581604       5.88420391       1.21494378         0.00000000       0.00000000       0.00000000          1
H         8.51328268       6.44909397       2.72332017         0.00000000       0.00000000       0.00000000          1
H         9.20299839       9.15606605       2.75326499         0.00000000       0.00000000       0.00000000          1
H        11.02863286       7.23950882       3.64665961         0.00000000       0.00000000       0.00000000          1
H        11.48553300       8.59117539       1.24488283         0.00000000       0.00000000       0.00000000          1
H         8.97017906       7.80076229       0.32154824         0.00000000       0.00000000       0.00000000          1
6
pbc=[F, F, F] list_num_par=6 frozen=false iter=20000 energy=-1.26974174 Lattice="15.00000000 0.00000000 0.00000000 0.00000000 15.00000000 0.00000000 0.00000000 0.00000000 15.00000000" energy_frozen_part=0.00000000 Properties=species:S:1:pos:R:3:velocities:R:3:Z:I:1
H        10.79604022       5.88321050       1.20750064         0.00000000       0.00000000       0.00000000          1
H         8.51525469       6.45112679       2.71738943         0.00000000       0.00000000       0.00000000          1
H         9.21739875       9.15470878       2.76111873         0.00000000       0.00000000       0.00000000          1
H        11.03368377       7.22537212       3.64602841         0.00000000       0.00000000       0.00000000          1
H        11.49818954       8.58679205       1.25122935         0.00000000       0.00000000       0.00000000          1
H         8.97976457       7.81255101       0.32258756         0.00000000       0.00000000       0.00000000          1
6
pbc=[F, F, F] list_num_par=6 frozen=false iter=20000 energy=-1.26974174 Lattice="15.00000000 0.00000000 0.00000000 0.00000000 15.00000000 0.00000000 0.00000000 0.00000000 15.00000000" energy_frozen_part=0.00000000 Properties=species:S:1:pos:R:3:velocities:R:3:Z:I:1
H        10.79613065       5.88326680       1.20757395         0.00000000       0.00000000       0.00000000          1
H         8.51531988       6.45108393       2.71746552         0.00000000       0.00000000       0.00000000          1
H         9.21733546       9.15470291       2.76115903         0.00000000       0.00000000       0.00000000          1
H        11.03371175       7.22546416       3.64607992         0.00000000       0.00000000       0.00000000          1
H        11.49814207       8.58688609       1.25126305         0.00000000       0.00000000       0.00000000          1
H         8.97974941       7.81249869       0.32265216         0.00000000       0.00000000       0.00000000          1
6
pbc=[F, F, F] list_num_par=6 frozen=false iter=20000 energy=-1.26974174 Lattice="15.00000000 0.00000000 0.00000000 0.00000000 15.00000000 0.00000000 0.00000000 0.00000000 15.00000000" energy_frozen_part=0.00000000 Properties=species:S:1:pos:R:3:velocities:R:3:Z:I:1
H        10.79707051       5.88375631       1.20674196         0.00000000       0.00000000       0.00000000          1
H         8.51647406       6.45139269       2.71702780         0.00000000       0.00000000       0.00000000          1
H         9.21817490       9.15509422       2.76044409         0.00000000       0.00000000       0.00000000          1
H        11.03494040       7.22611215       3.64513951         0.00000000       0.00000000       0.00000000          1
H        11.49877018       8.58745957       1.25016387         0.00000000       0.00000000       0.00000000          1
H         8.98029852       7.81273457       0.32205318         0.00000000       0.00000000       0.00000000          1
6
pbc=[F, F, F] list_num_par=6 frozen=false iter=20000 energy=-1.26974174 Lattice="15.00000000 0.00000000 0.00000000 0.00000000 15.00000000 0.00000000 0.00000000 0.00000000 15.00000000" energy_frozen_part=0.00000000 Properties=species:S:1:pos:R:3:velocities:R:3:Z:I:1
H        10.79604153       5.88321132       1.20748807         0.00000000       0.00000000       0.00000000          1
H         8.51525286       6.45111793       2.71738299         0.00000000       0.00000000       0.00000000          1
H         9.21740272       9.15470546       2.76113466         0.00000000       0.00000000       0.00000000          1
H        11.03367711       7.22534835       3.64602605         0.00000000       0.00000000       0.00000000          1
H        11.49818509       8.58679257       1.25123891         0.00000000       0.00000000       0.00000000          1
H         8.97975941       7.81256064       0.32259740         0.00000000       0.00000000       0.00000000          1
6
pbc=[F, F, F] list_num_par=6 frozen=false iter=20000 energy=-1.26974174 Lattice="15.00000000 0.00000000 0.00000000 0.00000000 15.00000000 0.00000000 0.00000000 0.00000000 15.00000000" energy_frozen_part=0.00000000 Properties=species:S:1:pos:R:3:velocities:R:3:Z:I:1
H        10.79604096       5.88321084       1.20750236         0.00000000       0.00000000       0.00000000          1
H         8.51525162       6.45111883       2.71738593         0.00000000       0.00000000       0.00000000          1
H         9.21737501       9.15470741       2.76110907         0.00000000       0.00000000       0.00000000          1
H        11.03366155       7.22538125       3.64602807         0.00000000       0.00000000       0.00000000          1
H        11.49817072       8.58679837       1.25122793         0.00000000       0.00000000       0.00000000          1
H         8.97975570       7.81253899       0.32258784         0.00000000       0.00000000       0.00000000          1
6
pbc=[F, F, F] list_num_par=6 frozen=false iter=20000 energy=-1.26974174 Lattice="15.00000000 0.00000000 0.00000000 0.00000000 15.00000000 0.00000000 0.00000000 0.00000000 15.00000000" energy_frozen_part=0.00000000 Properties=species:S:1:pos:R:3:velocities:R:3:Z:I:1
H        10.79547805       5.88368743       1.21510223         0.00000000       0.00000000       0.00000000          1
H         8.51298509       6.44875757       2.72348934         0.00000000       0.00000000       0.00000000          1
H         9.20272771       9.15572379       2.75313088         0.00000000       0.00000000       0.00000000          1
H        11.02836827       7.23924390       3.64666917         0.00000000       0.00000000       0.00000000          1
H        11.48521276       8.59066097       1.24474252         0.00000000       0.00000000       0.00000000          1
H         8.96983389       7.80017088       0.32156209         0.00000000       0.00000000       0.00000000          1
6
pbc=[F, F, F] list_num_par=6 frozen=false iter=20000 energy=-1.26974174 Lattice="15.00000000 0.00000000 0.00000000 0.00000000 15.00000000 0.00000000 0.00000000 0.00000000 15.00000000" energy_frozen_part=0.00000000 Properties=species:S:1:pos:R:3:velocities:R:3:Z:I:1
H        10.79581660       5.88419956       1.21493972         0.00000000       0.00000000       0.00000000          1
H         8.51326807       6.44910007       2.72329368         0.00000000       0.00000000       0.00000000          1
H         9.20300829       9.15606041       2.75325801         0.00000000       0.00000000       0.00000000          1
H        11.02861863       7.23948633       3.64666741         0.00000000       0.00000000       0.00000000          1
H        11.48555955       8.59116410       1.24490690         0.00000000       0.00000000       0.00000000          1
H         8.97021518       7.80077810       0.32152860         0.00000000       0.00000000       0.00000000          1
6
pbc=[F, F, F] list_num_par=6 frozen=false iter=20000 energy=-1.26974174 Lattice="15.00000000 0.00000000 0.00000000 0.00000000 15.00000000 0.00000000 0.00000000 0.00000000 15.00000000" energy_frozen_part=0.00000000 Properties=species:S:1:pos:R:3:velocities:R:3:Z:I:1
H        10.79581409       5.88418259       1.21494096         0.00000000       0.00000000       0.00000000          1
H         8.51327532       6.44908588       2.72331069         0.00000000       0.00000000       0.00000000          1
H         9.20300781       9.15605274       2.75326585         0.00000000       0.00000000       0.00000000          1
H        11.02862494       7.23947536       3.64666750         0.00000000       0.00000000       0.00000000          1
H        11.48555272       8.59114746       1.24490227         0.00000000       0.00000000       0.00000000          1
H         8.97020367       7.80075568       0.32154406         0.00000000       0.00000000       0.00000000          1
6
pbc=[F, F, F] list_num_par=6 frozen=false iter=20000 energy=-1.26974174 Lattice="15.00000000 0.00000000 0.00000000 0.00000000 15.00000000 0.00000000 0.00000000 0.00000000 15.00000000" energy_frozen_part=0.00000000 Properties=species:S:1:pos:R:3:velocities:R:3:Z:I:1
H        10.79610501       5.88421598       1.21502756         0.00000000       0.00000000       0.00000000          1
H         8.51343213       6.44899255       2.72325014         0.00000000       0.00000000       0.00000000          1
H         9.20300699       9.15600170       2.75321526         0.00000000       0.00000000       0.00000000          1
H        11.02867621       7.23954286       3.64675134         0.00000000       0.00000000       0.00000000          1
H        11.48567258       8.59122257       1.24500173         0.00000000       0.00000000       0.00000000          1
H         8.97042834       7.80066815       0.32149762         0.00000000       0.00000000       0.00000000          1
6
pbc=[F, F, F] list_num_par=6 frozen=false iter=20000 energy=-1.26974174 Lattice="15.00000000 0.00000000 0.00000000 0.00000000 15.00000000 0.00000000 0.00000000 0.00000000 15.00000000" energy_frozen_part=0.00000000 Properties=species:S:1:pos:R:3:velocities:R:3:Z:I:1
H        10.79606556       5.88325040       1.20748057         0.00000000       0.00000000       0.00000000          1
H         8.51527479       6.45111544       2.71738323         0.00000000       0.00000000       0.00000000          1
H         9.21736408       9.15471287       2.76113902         0.00000000       0.00000000       0.00000000          1
H        11.03368691       7.22540435       3.64601562         0.00000000       0.00000000       0.00000000          1
H        11.49815578       8.58685101       1.25123108         0.00000000       0.00000000       0.00000000          1
H         8.97974604       7.81256303       0.32260080         0.00000000       0.00000000       0.00000000          1
6
pbc=[F, F, F] list_num_par=6 frozen=false iter=20000 energy=-1.26974174 Lattice="15.00000000 0.00000000 0.00000000 0.00000000 15.00000000 0.00000000 0.00000000 0.00000000 15.00000000" energy_frozen_part=0.00000000 Properties=species:S:1:pos:R:3:velocities:R:3:Z:I:1
H        10.79707049       5.88375676       1.20676417         0.00000000       0.00000000       0.00000000          1
H         8.51646670       6.45138904       2.71704002         0.00000000       0.00000000       0.00000000          1
H         9.21815905       9.15509435       2.76045685         0.00000000       0.00000000       0.00000000          1
H        11.03493970       7.22612807       3.64515117         0.00000000       0.00000000       0.00000000          1
H        11.49875534       8.58746327       1.25017223         0.00000000       0.00000000       0.00000000          1
H         8.98028959       7.81272764       0.32206295         0.00000000       0.00000000       0.00000000          1
6
pbc=[F, F, F] list_num_par=6 frozen=false iter=20000 energy=-1.26974174 Lattice="15.00000000 0.00000000 0.00000000 0.00000000 15.00000000 0.00000000 0.00000000 0.00000000 15.00000000" energy_frozen_part=0.00000000 Properties=species:S:1:pos:R:3:velocities:R:3:Z:I:1
H        10.79548461       5.88369333       1.21509358         0.00000000       0.00000000       0.00000000          1
H         8.51299455       6.44875516       2.72348865         0.00000000       0.00000000       0.00000000          1
H         9.20273600       9.15571556       2.75314032         0.00000000       0.00000000       0.00000000          1
H        11.02838332       7.23923096       3.64666467         0.00000000       0.00000000       0.00000000          1
H        11.48521903       8.59065794       1.24474223         0.00000000       0.00000000       0.00000000          1
H         8.96983311       7.80017659       0.32156694         0.00000000       0.00000000       0.00000000          1
6
pbc=[F, F, F] list_num_par=6 frozen=false iter=20000 energy=-1.26974174 Lattice="15.00000000 0.00000000 0.00000000 0.00000000 15.00000000 0.00000000 0.00000000 0.00000000 15.00000000" energy_frozen_part=0.00000000 Properties=species:S:1:pos:R:3:velocities:R:3:Z:I:1
H        10.79600691       5.88319941       1.20750344         0.00000000       0.00000000       0.00000000          1
H         8.51523179       6.45112120       2.71740850         0.00000000       0.00000000       0.00000000          1
H         9.21737189       9.15471103       2.76111041         0.00000000       0.00000000       0.00000000          1
H        11.03365996       7.22538064       3.64601689         0.00000000       0.00000000       0.00000000          1
H        11.49814639       8.58678816       1.25120537         0.00000000       0.00000000       0.00000000          1
H         8.97971880       7.81252807       0.32260117         0.00000000       0.00000000       0.00000000          1
6
pbc=[F, F, F] list_num_par=6 frozen=false iter=20000 energy=-1.26974174 Lattice="15.00000000 0.00000000 0.00000000 0.00000000 15.00000000 0.00000000 0.00000000 0.00000000 15.00000000" energy_frozen_part=0.00000000 Properties=species:S:1:pos:R:3:velocities:R:3:Z:I:1
H        10.79603905       5.88424935       1.21492778         0.00000000       0.00000000       0.00000000          1
H         8.51338623       6.44896795       2.72319082         0.00000000       0.00000000       0.00000000          1
H         9.20292734       9.15597977       2.75321614         0.00000000       0.00000000       0.00000000          1
H        11.02863194       7.23952320       3.64668248         0.00000000       0.00000000       0.00000000          1
H        11.48558964       8.59126054       1.24495638         0.00000000       0.00000000       0.00000000          1
H         8.97033512       7.80070342       0.32146454         0.00000000       0.00000000       0.00000000          1
6
pbc=[F, F, F] list_num_par=6 frozen=false iter=20000 energy=-1.26974174 Lattice="15.00000000 0.00000000 0.00000000 0.00000000 15.00000000 0.00000000 0.00000000 0.00000000 15.00000000" energy_frozen_part=0.00000000 Properties=species:S:1:pos:R:3:velocities:R:3:Z:I:1
H        10.79601406       5.88320478       1.20751474         0.00000000       0.00000000       0.00000000          1
H         8.51522749       6.45113120       2.71740239         0.00000000       0.00000000       0.00000000          1
H         9.21736394       9.15471954       2.76110648         0.00000000       0.00000000       0.00000000          1
H        11.03365702       7.22539021       3.64602437         0.00000000       0.00000000       0.00000000          1
H        11.49814742       8.58679250       1.25121919         0.00000000       0.00000000       0.00000000          1
H         8.97972386       7.81253217       0.32259201         0.00000000       0.00000000       0.00000000          1
6
pbc=[F, F, F] list_num_par=6 frozen=false iter=20000 energy=-1.26974174 Lattice="15.00000000 0.00000000 0.00000000 0.00000000 15.00000000 0.00000000 0.00000000 0.00000000 15.00000000" energy_frozen_part=0.00000000 Properties=species:S:1:pos:R:3:velocities:R:3:Z:I:1
H        10.79599823       5.88322592       1.20757703         0.00000000       0.00000000       0.00000000          1
H         8.51523635       6.45122180       2.71747266         0.00000000       0.00000000       0.00000000          1
H         9.21745129       9.15478490       2.76114965         0.00000000       0.00000000       0.00000000          1
H        11.03368861       7.22541633       3.64607806         0.00000000       0.00000000       0.00000000          1
H        11.49821233       8.58679034       1.25125303         0.00000000       0.00000000       0.00000000          1
H         8.97976077       7.81258801       0.32264485         0.00000000       0.00000000       0.00000000          1
6
pbc=[F, F, F] list_num_par=6 frozen=false iter=20000 energy=-1.26974174 Lattice="15.00000000 0.00000000 0.00000000 0.00000000 15.00000000 0.00000000 0.00000000 0.00000000 15.00000000" energy_frozen_part=0.00000000 Properties=species:S:1:pos:R:3:velocities:R:3:Z:I:1
H        10.79611710       5.88420968       1.21501482         0.00000000       0.00000000       0.00000000          1
H         8.51344034       6.44893485       2.72323711         0.00000000       0.00000000       0.00000000          1
H         9.20296664       9.15595115       2.75323718         0.00000000       0.00000000       0.00000000          1
H        11.02867338       7.23951581       3.64675143         0.00000000       0.00000000       0.00000000          1
H        11.48564692       8.59122547       1.24501165         0.00000000       0.00000000       0.00000000          1
H         8.97040896       7.80064236       0.32149773         0.00000000       0.00000000       0.00000000          1
6
pbc=[F, F, F] list_num_par=6 frozen=false iter=20000 energy=-1.26974174 Lattice="15.00000000 0.00000000 0.00000000 0.00000000 15.00000000 0.00000000 0.00000000 0.00000000 15.00000000" energy_frozen_part=0.00000000 Properties=species:S:1:pos:R:3:velocities:R:3:Z:I:1
H        10.79604604       5.88322134       1.20750037         0.00000000       0.00000000       0.00000000          1
H         8.51525575       6.45112044       2.71739218         0.00000000       0.00000000       0.00000000          1
H         9.21738564       9.15470893       2.76112029         0.00000000       0.00000000       0.00000000          1
H        11.03367922       7.22538435       3.64602506         0.00000000       0.00000000       0.00000000          1
H        11.49817410       8.58681378       1.25123240         0.00000000       0.00000000       0.00000000          1
H         8.97975078       7.81254702       0.32259789         0.00000000       0.00000000       0.00000000          1
6
pbc=[F, F, F] list_num_par=6 frozen=false iter=20000 energy=-1.26974174 Lattice="15.00000000 0.00000000 0.00000000 0.00000000 15.00000000 0.00000000 0.00000000 0.00000000 15.00000000" energy_frozen_part=0.00000000 Properties=species:S:1:pos:R:3:velocities:R:3:Z:I:1
H        10.79604254       5.88320381       1.20750486         0.00000000       0.00000000       0.00000000          1
H         8.51525739       6.45111223       2.71739553         0.00000000       0.00000000       0.00000000          1
H         9.21738210       9.15470589       2.76111088         0.00000000       0.00000000       0.00000000          1
H        11.03367289       7.22537537       3.64602765         0.00000000       0.00000000       0.00000000          1
H        11.49817010       8.58678934       1.25122608         0.00000000       0.00000000       0.00000000          1
H         8.97975013       7.81253143       0.32259212         0.00000000       0.00000000       0.00000000          1
6
pbc=[F, F, F] list_num_par=6 frozen=false iter=20000 energy=-1.26974174 Lattice="15.00000000 0.00000000 0.00000000 0.00000000 15.00000000 0.00000000 0.00000000 0.00000000 15.00000000" energy_frozen_part=0.00000000 Properties=species:S:1:pos:R:3:velocities:R:3:Z:I:1
H        10.79604208       5.88320673       1.20749385         0.00000000       0.00000000       0.00000000          1
H         8.51525326       6.45112392       2.71738072         0.00000000       0.00000000       0.00000000          1
H         9.21740131       9.15470473       2.76112187         0.00000000       0.00000000       0.00000000          1
H        11.03367834       7.22535823       3.64602413         0.00000000       0.00000000       0.00000000          1
H        11.49818761       8.58679465       1.25122944         0.00000000       0.00000000       0.00000000          1
H         8.97976680       7.81255000       0.32259112         0.00000000       0.00000000       0.00000000          1
6
pbc=[F, F, F] list_num_par=6 frozen=false iter=20000 energy=-1.26974174 Lattice="15.00000000 0.00000000 0.00000000 0.00000000 15.00000000 0.00000000 0.00000000 0.00000000 15.00000000" energy_frozen_part=0.00000000 Properties=species:S:1:pos:R:3:velocities:R:3:Z:I:1
H        10.79602489       5.88319452       1.20751426         0.00000000       0.00000000       0.00000000          1
H         8.51523608       6.45112266       2.71740073         0.00000000       0.00000000       0.00000000          1