6
pbc=[F, F, F] list_num_par=6 frozen=false iter=20000 energy=-1.26974174 Lattice="15.00000000 0.00000000 0.00000000 0.00000000 15.00000000 0.00000000 0.00000000 0.00000000 15.00000000" energy_frozen_part=0.00000000 Properties=species:S:1:pos:R:3:velocities:R:3:Z:I:1
H         4.63242788       8.78604724       8.78218049         0.00000000       0.00000000       0.00000000          1
H         5.22346319      11.43255319       8.11062662         0.00000000       0.00000000       0.00000000          1
H         6.00522581      10.61019221       5.55781481         0.00000000       0.00000000       0.00000000          1
H         5.41419684       7.96368841       6.22936814         0.00000000       0.00000000       0.00000000          1
H         3.46899447       9.94712947       6.52328974         0.00000000       0.00000000       0.00000000          1
H         7.16866765       9.44910735       7.81670307         0.00000000       0.00000000       0.00000000          1
6
pbc=[F, F, F] list_num_par=6 frozen=false iter=20000 energy=-1.26974174 Lattice="15.00000000 0.00000000 0.00000000 0.00000000 15.00000000 0.00000000 0.00000000 0.00000000 15.00000000" energy_frozen_part=0.00000000 Properties=species:S:1:pos:R:3:velocities:R:3:Z:I:1
H         4.63246876       8.78601847       8.78217547         0.00000000       0.00000000       0.00000000          1
H         5.22348439      11.43252881       8.11063326         0.00000000       0.00000000       0.00000000          1
H         6.00517644      10.61019533       5.55778874         0.00000000       0.00000000       0.00000000          1
H         5.41416912       7.96368475       6.22933454         0.00000000       0.00000000       0.00000000          1
H         3.46897108       9.94712902       6.52333097         0.00000000       0.00000000       0.00000000          1
H         7.16867868       9.44908405       7.81663511         0.00000000       0.00000000       0.00000000          1
6
pbc=[F, F, F] list_num_par=6 frozen=false iter=20000 energy=-1.26974174 Lattice="15.00000000 0.00000000 0.00000000 0.00000000 15.00000000 0.00000000 0.00000000 0.00000000 15.00000000" energy_frozen_part=0.00000000 Properties=species:S:1:pos:R:3:velocities:R:3:Z:I:1
H         4.63249922       8.78613317       8.78221424         0.00000000       0.00000000       0.00000000          1
H         5.22346459      11.43262350       8.11055327         0.00000000       0.00000000       0.00000000          1
H         6.00514208      10.61018770       5.55774269         0.00000000       0.00000000       0.00000000          1
H         5.41417691       7.96370101       6.22940268         0.00000000       0.00000000       0.00000000          1
H         3.46895235       9.94712226       6.52333217         0.00000000       0.00000000       0.00000000          1
H         7.16868734       9.44919394       7.81662527         0.00000000       0.00000000       0.00000000          1
6
pbc=[F, F, F] list_num_par=6 frozen=false iter=20000 energy=-1.26974174 Lattice="15.00000000 0.00000000 0.00000000 0.00000000 15.00000000 0.00000000 0.00000000 0.00000000 15.00000000" energy_frozen_part=0.00000000 Properties=species:S:1:pos:R:3:velocities:R:3:Z:I:1
H         4.63245568       8.78608185       8.78221749         0.00000000       0.00000000       0.00000000          1
H         5.22342652      11.43258617       8.11063788         0.00000000       0.00000000       0.00000000          1
H         6.00513225      10.61022398       5.55780949         0.00000000       0.00000000       0.00000000          1
H         5.41416010       7.96371090       6.22939027         0.00000000       0.00000000       0.00000000          1
H         3.46893139       9.94713675       6.52335685         0.00000000       0.00000000       0.00000000          1
H         7.16865578       9.44916897       7.81666177         0.00000000       0.00000000       0.00000000          1
6
pbc=[F, F, F] list_num_par=6 frozen=false iter=20000 energy=-1.26974174 Lattice="15.00000000 0.00000000 0.00000000 0.00000000 15.00000000 0.00000000 0.00000000 0.00000000 15.00000000" energy_frozen_part=0.00000000 Properties=species:S:1:pos:R:3:velocities:R:3:Z:I:1
H         4.62267717       8.80680718       8.79106297         0.00000000       0.00000000       0.00000000          1
H         5.21112899      11.45500949       8.12395711         0.00000000       0.00000000       0.00000000          1
H         5.98645901      10.63867305       5.56725783         0.00000000       0.00000000       0.00000000          1
H         5.39800487       7.99047369       6.23435790         0.00000000       0.00000000       0.00000000          1
H         3.45296443       9.97263533       6.53786619         0.00000000       0.00000000       0.00000000          1
H         7.15616998       9.47284042       7.82045746         0.00000000       0.00000000       0.00000000          1
6
pbc=[F, F, F] list_num_par=6 frozen=false iter=20000 energy=-1.26974174 Lattice="15.00000000 0.00000000 0.00000000 0.00000000 15.00000000 0.00000000 0.00000000 0.00000000 15.00000000" energy_frozen_part=0.00000000 Properties=species:S:1:pos:R:3:velocities:R:3:Z:I:1
H         4.64030594       8.79187577       8.80096852         0.00000000       0.00000000       0.00000000          1
H         5.25233765      11.43109414       8.11961654         0.00000000       0.00000000       0.00000000          1
H         6.00458870      10.59635039       5.56195549         0.00000000       0.00000000       0.00000000          1
H         5.39255127       7.95713358       6.24330986         0.00000000       0.00000000       0.00000000          1
H         3.46990590       9.96059884       6.54962802         0.00000000       0.00000000       0.00000000          1
H         7.17498557       9.42762533       7.81328898         0.00000000       0.00000000       0.00000000          1
6
pbc=[F, F, F] list_num_par=6 frozen=false iter=20000 energy=-1.26974174 Lattice="15.00000000 0.00000000 0.00000000 0.00000000 15.00000000 0.00000000 0.00000000 0.00000000 15.00000000" energy_frozen_part=0.00000000 Properties=species:S:1:pos:R:3:velocities:R:3:Z:I:1
H         6.56405328      10.09454065       8.57369788         0.00000000       0.00000000       0.00000000          1
H         5.17182671      11.99656406       7.07426932         0.00000000       0.00000000       0.00000000          1
H         4.52637004      10.03823488       5.18943370         0.00000000       0.00000000       0.00000000          1
H         5.91860423       8.13621639       6.68885780         0.00000000       0.00000000       0.00000000          1
H         3.89455165       9.64714987       7.88241372         0.00000000       0.00000000       0.00000000          1
H         7.19587262      10.48563265       5.88071665         0.00000000       0.00000000       0.00000000          1
6
pbc=[F, F, F] list_num_par=6 frozen=false iter=20000 energy=-1.26974174 Lattice="15.00000000 0.00000000 0.00000000 0.00000000 15.00000000 0.00000000 0.00000000 0.00000000 15.00000000" energy_frozen_part=0.00000000 Properties=species:S:1:pos:R:3:velocities:R:3:Z:I:1
H         6.56405917      10.09454612       8.57369250         0.00000000       0.00000000       0.00000000          1
H         5.17182545      11.99656285       7.07426020         0.00000000       0.00000000       0.00000000          1
H         4.52634774      10.03821551       5.18945146         0.00000000       0.00000000       0.00000000          1
H         5.91858913       8.13619311       6.68887664         0.00000000       0.00000000       0.00000000          1
H         3.89455278       9.64715506       7.88243395         0.00000000       0.00000000       0.00000000          1
H         7.19586146      10.48560263       5.88070609         0.00000000       0.00000000       0.00000000          1
6
pbc=[F, F, F] list_num_par=6 frozen=false iter=20000 energy=-1.26974174 Lattice="15.00000000 0.00000000 0.00000000 0.00000000 15.00000000 0.00000000 0.00000000 0.00000000 15.00000000" energy_frozen_part=0.00000000 Properties=species:S:1:pos:R:3:velocities:R:3:Z:I:1
H         4.62269626       8.80675942       8.79103362         0.00000000       0.00000000       0.00000000          1
H         5.21114078      11.45497094       8.12397448         0.00000000       0.00000000       0.00000000          1
H         5.98645029      10.63868127       5.56725031         0.00000000       0.00000000       0.00000000          1
H         5.39800702       7.99046106       6.23430679         0.00000000       0.00000000       0.00000000          1
H         3.45296378       9.97261921       6.53786755         0.00000000       0.00000000       0.00000000          1
H         7.15617917       9.47281688       7.82041594         0.00000000       0.00000000       0.00000000          1
6
pbc=[F, F, F] list_num_par=6 frozen=false iter=20000 energy=-1.26974174 Lattice="15.00000000 0.00000000 0.00000000 0.00000000 15.00000000 0.00000000 0.00000000 0.00000000 15.00000000" energy_frozen_part=0.00000000 Properties=species:S:1:pos:R:3:velocities:R:3:Z:I:1
H         4.63246785       8.78604426       8.78219063         0.00000000       0.00000000       0.00000000          1
H         5.22348141      11.43254958       8.11063014         0.00000000       0.00000000       0.00000000          1
H         6.00519772      10.61018703       5.55780277         0.00000000       0.00000000       0.00000000          1
H         5.41417597       7.96367722       6.22936363         0.00000000       0.00000000       0.00000000          1
H         3.46898259       9.94713120       6.52332612         0.00000000       0.00000000       0.00000000          1
H         7.16868675       9.44910443       7.81666066         0.00000000       0.00000000       0.00000000          1
6
pbc=[F, F, F] list_num_par=6 frozen=false iter=20000 energy=-1.26974174 Lattice="15.00000000 0.00000000 0.00000000 0.00000000 15.00000000 0.00000000 0.00000000 0.00000000 15.00000000" energy_frozen_part=0.00000000 Properties=species:S:1:pos:R:3:velocities:R:3:Z:I:1
H         4.63250335       8.78612813       8.78221725         0.00000000       0.00000000       0.00000000          1
H         5.22347044      11.43262177       8.11055308         0.00000000       0.00000000       0.00000000          1
H         6.00513958      10.61018696       5.55774409         0.00000000       0.00000000       0.00000000          1
H         5.41418410       7.96369463       6.22940181         0.00000000       0.00000000       0.00000000          1
H         3.46895332       9.94712008       6.52333654         0.00000000       0.00000000       0.00000000          1
H         7.16869391       9.44919331       7.81662333         0.00000000       0.00000000       0.00000000          1
6
pbc=[F, F, F] list_num_par=6 frozen=false iter=20000 energy=-1.26974174 Lattice="15.00000000 0.00000000 0.00000000 0.00000000 15.00000000 0.00000000 0.00000000 0.00000000 15.00000000" energy_frozen_part=0.00000000 Properties=species:S:1:pos:R:3:velocities:R:3:Z:I:1
H         4.64028602       8.79186428       8.80097188         0.00000000       0.00000000       0.00000000          1
H         5.25231854      11.43108152       8.11961970         0.00000000       0.00000000       0.00000000          1
H         6.00458915      10.59633532       5.56197305         0.00000000       0.00000000       0.00000000          1
H         5.39254928       7.95712123       6.24331491         0.00000000       0.00000000       0.00000000          1
H         3.46989579       9.96058537       6.54962010         0.00000000       0.00000000       0.00000000          1
H         7.17497489       9.42760936       7.81332106         0.00000000       0.00000000       0.00000000          1
6
pbc=[F, F, F] list_num_par=6 frozen=false iter=20000 energy=-1.26974174 Lattice="15.00000000 0.00000000 0.00000000 0.00000000 15.00000000 0.00000000 0.00000000 0.00000000 15.00000000" energy_frozen_part=0.00000000 Properties=species:S:1:pos:R:3:velocities:R:3:Z:I:1
H         4.62226454       8.80605301       8.79061493         0.00000000       0.00000000       0.00000000          1
H         5.21033825      11.45451379       8.12420099         0.00000000       0.00000000       0.00000000          1
H         5.98564098      10.63896447       5.56723659         0.00000000       0.00000000       0.00000000          1
H         5.39756814       7.99051032       6.23364965         0.00000000       0.00000000       0.00000000          1
H         3.45227707       9.97234172       6.53779721         0.00000000       0.00000000       0.00000000          1
H         7.15562494       9.47268223       7.82006137         0.00000000       0.00000000       0.00000000          1
6
pbc=[F, F, F] list_num_par=6 frozen=false iter=20000 energy=-1.26974174 Lattice="15.00000000 0.00000000 0.00000000 0.00000000 15.00000000 0.00000000 0.00000000 0.00000000 15.00000000" energy_frozen_part=0.00000000 Properties=species:S:1:pos:R:3:velocities:R:3:Z:I:1
H         6.56417686      10.09479840       8.57352167         0.00000000       0.00000000       0.00000000          1
H         5.17204770      11.99670017       7.07385171         0.00000000       0.00000000       0.00000000          1
H         4.52645260      10.03815485       5.18928951         0.00000000       0.00000000       0.00000000          1
H         5.91857464       8.13624361       6.68896253         0.00000000       0.00000000       0.00000000          1
H         3.89463295       9.64747645       7.88233181         0.00000000       0.00000000       0.00000000          1
H         7.19599177      10.48547546       5.88048438         0.00000000       0.00000000       0.00000000          1
6
pbc=[F, F, F] list_num_par=6 frozen=false iter=20000 energy=-1.26974174 Lattice="15.00000000 0.00000000 0.00000000 0.00000000 15.00000000 0.00000000 0.00000000 0.00000000 15.00000000" energy_frozen_part=0.00000000 Properties=species:S:1:pos:R:3:velocities:R:3:Z:I:1
H         6.56404914      10.09452536       8.57368851         0.00000000       0.00000000       0.00000000          1
H         5.17181551      11.99654912       7.07426535         0.00000000       0.00000000       0.00000000          1
H         4.52634837      10.03820906       5.18943799         0.00000000       0.00000000       0.00000000          1
H         5.91857095       8.13618473       6.68886917         0.00000000       0.00000000       0.00000000          1
H         3.89453695       9.64714002       7.88242174         0.00000000       0.00000000       0.00000000          1
H         7.19585979      10.48559252       5.88070817         0.00000000       0.00000000       0.00000000          1
6
pbc=[F, F, F] list_num_par=6 frozen=false iter=20000 energy=-1.26974174 Lattice="15.00000000 0.00000000 0.00000000 0.00000000 15.00000000 0.00000000 0.00000000 0.00000000 15.00000000" energy_frozen_part=0.00000000 Properties=species:S:1:pos:R:3:velocities:R:3:Z:I:1
H         6.56403914      10.09454220       8.57368463         0.00000000       0.00000000       0.00000000          1
H         5.17180251      11.99654796       7.07424129         0.00000000       0.00000000       0.00000000          1
H         4.52632536      10.03818565       5.18944170         0.00000000       0.00000000       0.00000000          1
H         5.91856030       8.13617992       6.68888230         0.00000000       0.00000000       0.00000000          1
H         3.89452670       9.64715391       7.88243271         0.00000000       0.00000000       0.00000000          1
H         7.19583869      10.48558214       5.88069096         0.00000000       0.00000000       0.00000000          1
6
pbc=[F, F, F] list_num_par=6 frozen=false iter=20000 energy=-1.26974174 Lattice="15.00000000 0.00000000 0.00000000 0.00000000 15.00000000 0.00000000 0.00000000 0.00000000 15.00000000" energy_frozen_part=0.00000000 Properties=species:S:1:pos:R:3:velocities:R:3:Z:I:1
H         4.63245208       8.78605402       8.78219920         0.00000000       0.00000000       0.00000000          1
H         5.22347259      11.43255465       8.11062939         0.00000000       0.00000000       0.00000000          1
H         6.00520702      10.61018864       5.55781351         0.00000000       0.00000000       0.00000000          1
H         5.41418219       7.96368672       6.22938012         0.00000000       0.00000000       0.00000000          1
H         3.46897649       9.94713422       6.52331753         0.00000000       0.00000000       0.00000000          1
H         7.16867924       9.44911183       7.81669084         0.00000000       0.00000000       0.00000000          1
6
pbc=[F, F, F] list_num_par=6 frozen=false iter=20000 energy=-1.26974174 Lattice="15.00000000 0.00000000 0.00000000 0.00000000 15.00000000 0.00000000 0.00000000 0.00000000 15.00000000" energy_frozen_part=0.00000000 Properties=species:S:1:pos:R:3:velocities:R:3:Z:I:1
H         4.62267790       8.80681561       8.79106024         0.00000000       0.00000000       0.00000000          1
H         5.21112326      11.45501640       8.12394810         0.00000000       0.00000000       0.00000000          1
H         5.98646955      10.63867595       5.56725058         0.00000000       0.00000000       0.00000000          1
H         5.39801096       7.99047670       6.23435875         0.00000000       0.00000000       0.00000000          1
H         3.45296768       9.97263231       6.53785339         0.00000000       0.00000000       0.00000000          1
H         7.15617168       9.47285301       7.82045689         0.00000000       0.00000000       0.00000000          1
6
pbc=[F, F, F] list_num_par=6 frozen=false iter=20000 energy=-1.26974174 Lattice="15.00000000 0.00000000 0.00000000 0.00000000 15.00000000 0.00000000 0.00000000 0.00000000 15.00000000" energy_frozen_part=0.00000000 Properties=species:S:1:pos:R:3:velocities:R:3:Z:I:1
H         4.62268503       8.80677861       8.79102801         0.00000000       0.00000000       0.00000000          1
H         5.21112021      11.45498946       8.12394751         0.00000000       0.00000000       0.00000000          1
H         5.98645320      10.63868057       5.56723618         0.00000000       0.00000000       0.00000000          1
H         5.39802027       7.99046224       6.23431708         0.00000000       0.00000000       0.00000000          1
H         3.45296692       9.97261659       6.53783480         0.00000000       0.00000000       0.00000000          1
H         7.15617119       9.47283799       7.82042801         0.00000000       0.00000000       0.00000000          1
6
pbc=[F, F, F] list_num_par=6 frozen=false iter=20000 energy=-1.26974174 Lattice="15.00000000 0.00000000 0.00000000 0.00000000 15.00000000 0.00000000 0.00000000 0.00000000 15.00000000" energy_frozen_part=0.00000000 Properties=species:S:1:pos:R:3:velocities:R:3:Z:I:1
H         6.56410022      10.09480031       8.57356235         0.00000000       0.00000000       0.00000000          1
H         5.17195600      11.99668492       7.07388054         0.00000000       0.00000000       0.00000000          1
H         4.52640318      10.03813375       5.18931283         0.00000000       0.00000000       0.00000000          1
H         5.91855109       8.13624674       6.68898982         0.00000000       0.00000000       0.00000000          1
H         3.89457369       9.64743312       7.88234970         0.00000000       0.00000000       0.00000000          1
H         7.19593053      10.48549875       5.88052831         0.00000000       0.00000000       0.00000000          1
6
pbc=[F, F, F] list_num_par=6 frozen=false iter=20000 energy=-1.26974174 Lattice="15.00000000 0.00000000 0.00000000 0.00000000 15.00000000 0.00000000 0.00000000 0.00000000 15.00000000" energy_frozen_part=0.00000000 Properties=species:S:1:pos:R:3:velocities:R:3:Z:I:1
H         4.64029227       8.79178406       8.80096030         0.00000000       0.00000000       0.00000000          1
H         5.25228529      11.43102798       8.11966231         0.00000000       0.00000000       0.00000000          1
H         6.00457517      10.59634549       5.56200261         0.00000000       0.00000000       0.00000000          1
H         5.39258794       7.95710076       6.24329456         0.00000000       0.00000000       0.00000000          1
H         3.46989609       9.96052857       6.54962992         0.00000000       0.00000000       0.00000000          1
H         7.17497277       9.42759687       7.81333532         0.00000000       0.00000000       0.00000000          1
6
pbc=[F, F, F] list_num_par=6 frozen=false iter=20000 energy=-1.26974174 Lattice="15.00000000 0.00000000 0.00000000 0.00000000 15.00000000 0.00000000 0.00000000 0.00000000 15.00000000" energy_frozen_part=0.00000000 Properties=species:S:1:pos:R:3:velocities:R:3:Z:I:1
H         4.63246632       8.78607969       8.78219711         0.00000000       0.00000000       0.00000000          1
H         5.22345984      11.43258146       8.11059910         0.00000000       0.00000000       0.00000000          1
H         6.00510723      10.61019633       5.55775976         0.00000000       0.00000000       0.00000000          1
H         5.41410031       7.96369637       6.22934850         0.00000000       0.00000000       0.00000000          1
H         3.46891181       9.94715068       6.52335781         0.00000000       0.00000000       0.00000000          1
H         7.16865364       9.44912622       7.81659843         0.00000000       0.00000000       0.00000000          1
6
pbc=[F, F, F] list_num_par=6 frozen=false iter=20000 energy=-1.26974174 Lattice="15.00000000 0.00000000 0.00000000 0.00000000 15.00000000 0.00000000 0.00000000 0.00000000 15.00000000" energy_frozen_part=0.00000000 Properties=species:S:1:pos:R:3:velocities:R:3:Z:I:1
H         6.56402944      10.09455815       8.57369545         0.00000000       0.00000000       0.00000000          1
H         5.17179644      11.99655057       7.07422784         0.00000000       0.00000000       0.00000000          1
H         4.52632306      10.03817482       5.18944157         0.00000000       0.00000000       0.00000000          1
H         5.91856037       8.13618346       6.68890958         0.00000000       0.00000000       0.00000000          1
H         3.89452530       9.64715657       7.88243563         0.00000000       0.00000000       0.00000000          1
H         7.19583408      10.48557983       5.88069528         0.00000000       0.00000000       0.00000000          1
6
pbc=[F, F, F] list_num_par=6 frozen=false iter=20000 energy=-1.26974174 Lattice="15.00000000 0.00000000 0.00000000 0.00000000 15.00000000 0.00000000 0.00000000 0.00000000 15.00000000" energy_frozen_part=0.00000000 Properties=species:S:1:pos:R:3:velocities:R:3:Z:I:1
H         4.63247518       8.78603060       8.78218580         0.00000000       0.00000000       0.00000000          1
H         5.22349205      11.43253624       8.11063330         0.00000000       0.00000000       0.00000000          1
H         6.00517914      10.61019444       5.55779761         0.00000000       0.00000000       0.00000000          1
H         5.41416995       7.96368230       6.22934566         0.00000000       0.00000000       0.00000000          1
H         3.46896688       9.94712542       6.52334206         0.00000000       0.00000000       0.00000000          1
H         7.16868538       9.44908777       7.81664570         0.00000000       0.00000000       0.00000000          1
6
pbc=[F, F, F] list_num_par=6 frozen=false iter=20000 energy=-1.26974174 Lattice="15.00000000 0.00000000 0.00000000 0.00000000 15.00000000 0.00000000 0.00000000 0.00000000 15.00000000" energy_frozen_part=0.00000000 Properties=species:S:1:pos:R:3:velocities:R:3:Z:I:1
H         4.63247726       8.78601863       8.78218004         0.00000000       0.00000000       0.00000000          1
H         5.22350317      11.43253179       8.11063068         0.00000000       0.00000000       0.00000000          1
H         6.00517527      10.61018388       5.55778970         0.00000000       0.00000000       0.00000000          1
H         5.41415660       7.96367497       6.22933394         0.00000000       0.00000000       0.00000000          1
H         3.46896997       9.94712960       6.52334144         0.00000000       0.00000000       0.00000000          1
H         7.16868620       9.44907924       7.81662762         0.00000000       0.00000000       0.00000000          1
6
pbc=[F, F, F] list_num_par=6 frozen=false iter=20000 energy=-1.26974174 Lattice="15.00000000 0.00000000 0.00000000 0.00000000 15.00000000 0.00000000 0.00000000 0.00000000 15.00000000" energy_frozen_part=0.00000000 Properties=species:S:1:pos:R:3:velocities:R:3:Z:I:1
H         4.63245921       8.78603431       8.78218512         0.00000000       0.00000000       0.00000000          1
H         5.22347987      11.43254337       8.11063440         0.00000000       0.00000000       0.00000000          1
H         6.00518951      10.61019663       5.55780337         0.00000000       0.00000000       0.00000000          1
H         5.41416564       7.96368288       6.22935251         0.00000000       0.00000000       0.00000000          1
H         3.46897047       9.94713147       6.52332709         0.00000000       0.00000000       0.00000000          1
H         7.16867450       9.44909777       7.81666099         0.00000000       0.00000000       0.00000000          1
6
pbc=[F, F, F] list_num_par=6 frozen=false iter=20000 energy=-1.26974174 Lattice="15.00000000 0.00000000 0.00000000 0.00000000 15.00000000 0.00000000 0.00000000 0.00000000 15.00000000" energy_frozen_part=0.00000000 Properties=species:S:1:pos:R:3:velocities:R:3:Z:I:1
H         6.56417881      10.09478721       8.57352476         0.00000000       0.00000000       0.00000000          1
H         5.17205745      11.99670217       7.07385375         0.00000000       0.00000000       0.00000000          1
H         4.52645783      10.03816155       5.18929129         0.00000000       0.00000000       0.00000000          1
H         5.91857662       8.13624622       6.68895420         0.00000000       0.00000000       0.00000000          1
H         3.89463746       9.64747930       7.88233254         0.00000000       0.00000000       0.00000000          1
H         7.19599440      10.48547017       5.88048841         0.00000000       0.00000000       0.00000000          1
6
pbc=[F, F, F] list_num_par=6 frozen=false iter=20000 energy=-1.26974174 Lattice="15.00000000 0.00000000 0.00000000 0.00000000 15.00000000 0.00000000 0.00000000 0.00000000 15.00000000" energy_frozen_part=0.00000000 Properties=species:S:1:pos:R:3:velocities:R:3:Z:I:1
H         4.62268769       8.80679233       8.79103960         0.00000000       0.00000000       0.00000000          1
H         5.21112078      11.45499872       8.12394614         0.00000000       0.00000000       0.00000000          1
H         5.98646067      10.63867633       5.56723710         0.00000000       0.00000000       0.00000000          1
H         5.39802106       7.99046699       6.23432879         0.00000000       0.00000000       0.00000000          1
H         3.45296587       9.97262059       6.53784365         0.00000000       0.00000000       0.00000000          1
H         7.15617842       9.47284173       7.82043600         0.00000000       0.00000000       0.00000000          1
6
pbc=[F, F, F] list_num_par=6 frozen=false iter=20000 energy=-1.26974174 Lattice="15.00000000 0.00000000 0.00000000 0.00000000 15.00000000 0.00000000 0.00000000 0.00000000 15.00000000" energy_frozen_part=0.00000000 Properties=species:S:1:pos:R:3:velocities:R:3:Z:I:1
H         4.64029285       8.79180044       8.80095905         0.00000000       0.00000000       0.00000000          1
H         5.25228528      11.43103345       8.11964893         0.00000000       0.00000000       0.00000000          1
H         6.00457689      10.59633903       5.56198983         0.00000000       0.00000000       0.00000000          1
H         5.39259087       7.95710106       6.24329864         0.00000000       0.00000000       0.00000000          1
H         3.46989692       9.96052666       6.54962728         0.00000000       0.00000000       0.00000000          1
H         7.17497789       9.42760731       7.81332926         0.00000000       0.00000000       0.00000000          1
6
pbc=[F, F, F] list_num_par=6 frozen=false iter=20000 energy=-1.26974174 Lattice="15.00000000 0.00000000 0.00000000 0.00000000 15.00000000 0.00000000 0.00000000 0.00000000 15.00000000" energy_frozen_part=0.00000000 Properties=species:S:1:pos:R:3:velocities:R:3:Z:I:1
H         4.62226152       8.80605445       8.79062313         0.00000000       0.00000000       0.00000000          1
H         5.21034183      11.45450831       8.12420413         0.00000000       0.00000000       0.00000000          1
H         5.98564511      10.63896650       5.56723656         0.00000000       0.00000000       0.00000000          1
H         5.39756174       7.99050791       6.23365958         0.00000000       0.00000000       0.00000000          1
H         3.45227857       9.97234043       6.53779679         0.00000000       0.00000000       0.00000000          1
H         7.15562267       9.47267661       7.82006140         0.00000000       0.00000000       0.00000000          1
6
pbc=[F, F, F] list_num_par=6 frozen=false iter=20000 energy=-1.26974174 Lattice="15.00000000 0.00000000 0.00000000 0.00000000 15.00000000 0.00000000 0.00000000 0.00000000 15.00000000" energy_frozen_part=0.00000000 Properties=species:S:1:pos:R:3:velocities:R:3:Z:I:1
H         4.64028946       8.79186643       8.80097750         0.00000000       0.00000000       0.00000000          1
H         5.25233229      11.43107927       8.11961918         0.00000000       0.00000000       0.00000000          1