6
pbc=[F, F, F] list_num_par=6 frozen=false iter=20000 energy=-1.26974174 Lattice="15.00000000 0.00000000 0.00000000 0.00000000 15.00000000 0.00000000 0.00000000 0.00000000 15.00000000" energy_frozen_part=0.00000000 Properties=species:S:1:pos:R:3:velocities:R:3:Z:I:1
H         3.55536674       8.26517951       3.03989122         0.00000000       0.00000000       0.00000000          1
H         0.69614231       8.21554718       0.31391924         0.00000000       0.00000000       0.00000000          1
H         1.04142383       7.06408317       2.83566500         0.00000000       0.00000000       0.00000000          1
H         2.95193244       6.65358043       0.83923005         0.00000000       0.00000000       0.00000000          1
H         1.29958765       9.82715433       2.51457291         0.00000000       0.00000000       0.00000000          1
H         3.21009193       9.41664619       0.51814331         0.00000000       0.00000000       0.00000000          1
6
pbc=[F, F, F] list_num_par=6 frozen=false iter=20000 energy=-1.26974174 Lattice="15.00000000 0.00000000 0.00000000 0.00000000 15.00000000 0.00000000 0.00000000 0.00000000 15.00000000" energy_frozen_part=0.00000000 Properties=species:S:1:pos:R:3:velocities:R:3:Z:I:1
H         3.54649217       8.27293605       3.04290952         0.00000000       0.00000000       0.00000000          1
H         0.70238211       8.21626659       0.30130009         0.00000000       0.00000000       0.00000000          1
H         1.03361030       7.07147637       2.82797041         0.00000000       0.00000000       0.00000000          1
H         2.95509198       6.65553135       0.84323601         0.00000000       0.00000000       0.00000000          1
H         1.29377629       9.83365919       2.50096974         0.00000000       0.00000000       0.00000000          1
H         3.21527071       9.41771710       0.51624149         0.00000000       0.00000000       0.00000000          1
6
pbc=[F, F, F] list_num_par=6 frozen=false iter=20000 energy=-1.26974174 Lattice="15.00000000 0.00000000 0.00000000 0.00000000 15.00000000 0.00000000 0.00000000 0.00000000 15.00000000" energy_frozen_part=0.00000000 Properties=species:S:1:pos:R:3:velocities:R:3:Z:I:1
H         3.54661192       8.27267590       3.04305311         0.00000000       0.00000000       0.00000000          1
H         0.70272747       8.21635654       0.30120571         0.00000000       0.00000000       0.00000000          1
H         1.03362613       7.07148073       2.82787393         0.00000000       0.00000000       0.00000000          1
H         2.95523912       6.65538902       0.84329048         0.00000000       0.00000000       0.00000000          1
H         1.29410343       9.83364992       2.50096837         0.00000000       0.00000000       0.00000000          1
H         3.21571144       9.41756193       0.51638378         0.00000000       0.00000000       0.00000000          1
6
pbc=[F, F, F] list_num_par=6 frozen=false iter=20000 energy=-1.26974174 Lattice="15.00000000 0.00000000 0.00000000 0.00000000 15.00000000 0.00000000 0.00000000 0.00000000 15.00000000" energy_frozen_part=0.00000000 Properties=species:S:1:pos:R:3:velocities:R:3:Z:I:1
H         3.54649234       8.27295399       3.04291881         0.00000000       0.00000000       0.00000000          1
H         0.70238108       8.21625381       0.30131712         0.00000000       0.00000000       0.00000000          1
H         1.03361487       7.07148596       2.82798124         0.00000000       0.00000000       0.00000000          1
H         2.95510724       6.65554079       0.84325145         0.00000000       0.00000000       0.00000000          1
H         1.29377184       9.83367275       2.50098068         0.00000000       0.00000000       0.00000000          1
H         3.21525484       9.41772429       0.51624910         0.00000000       0.00000000       0.00000000          1
6
pbc=[F, F, F] list_num_par=6 frozen=false iter=20000 energy=-1.26974174 Lattice="15.00000000 0.00000000 0.00000000 0.00000000 15.00000000 0.00000000 0.00000000 0.00000000 15.00000000" energy_frozen_part=0.00000000 Properties=species:S:1:pos:R:3:velocities:R:3:Z:I:1
H         3.54665943       8.27300615       3.04293669         0.00000000       0.00000000       0.00000000          1
H         0.70253697       8.21626851       0.30136076         0.00000000       0.00000000       0.00000000          1
H         1.03375062       7.07159001       2.82807518         0.00000000       0.00000000       0.00000000          1
H         2.95522063       6.65551889       0.84334705         0.00000000       0.00000000       0.00000000          1
H         1.29397631       9.83375633       2.50094823         0.00000000       0.00000000       0.00000000          1
H         3.21543974       9.41768659       0.51622096         0.00000000       0.00000000       0.00000000          1
6
pbc=[F, F, F] list_num_par=6 frozen=false iter=20000 energy=-1.26974174 Lattice="15.00000000 0.00000000 0.00000000 0.00000000 15.00000000 0.00000000 0.00000000 0.00000000 15.00000000" energy_frozen_part=0.00000000 Properties=species:S:1:pos:R:3:velocities:R:3:Z:I:1
H         3.55540699       8.26505255       3.03982759         0.00000000       0.00000000       0.00000000          1
H         0.69630856       8.21492525       0.31373563         0.00000000       0.00000000       0.00000000          1
H         1.04156587       7.06372840       2.83561265         0.00000000       0.00000000       0.00000000          1
H         2.95219212       6.65318093       0.83930950         0.00000000       0.00000000       0.00000000          1
H         1.29951563       9.82678560       2.51426176         0.00000000       0.00000000       0.00000000          1
H         3.21014859       9.41623879       0.51795590         0.00000000       0.00000000       0.00000000          1
6
pbc=[F, F, F] list_num_par=6 frozen=false iter=20000 energy=-1.26974174 Lattice="15.00000000 0.00000000 0.00000000 0.00000000 15.00000000 0.00000000 0.00000000 0.00000000 15.00000000" energy_frozen_part=0.00000000 Properties=species:S:1:pos:R:3:velocities:R:3:Z:I:1
H         3.54648328       8.27292295       3.04290392         0.00000000       0.00000000       0.00000000          1
H         0.70238452       8.21626847       0.30128387         0.00000000       0.00000000       0.00000000          1
H         1.03358812       7.07149096       2.82795951         0.00000000       0.00000000       0.00000000          1
H         2.95508705       6.65552218       0.84323761         0.00000000       0.00000000       0.00000000          1
H         1.29378545       9.83366955       2.50095722         0.00000000       0.00000000       0.00000000          1
H         3.21528181       9.41770534       0.51623757         0.00000000       0.00000000       0.00000000          1
6
pbc=[F, F, F] list_num_par=6 frozen=false iter=20000 energy=-1.26974174 Lattice="15.00000000 0.00000000 0.00000000 0.00000000 15.00000000 0.00000000 0.00000000 0.00000000 15.00000000" energy_frozen_part=0.00000000 Properties=species:S:1:pos:R:3:velocities:R:3:Z:I:1
H         3.54640416       8.27293742       3.04302977         0.00000000       0.00000000       0.00000000          1
H         0.70245503       8.21623699       0.30126383         0.00000000       0.00000000       0.00000000          1
H         1.03354846       7.07143873       2.82794055         0.00000000       0.00000000       0.00000000          1
H         2.95515910       6.65553538       0.84331972         0.00000000       0.00000000       0.00000000          1
H         1.29369328       9.83362944       2.50098231         0.00000000       0.00000000       0.00000000          1
H         3.21530895       9.41772744       0.51635854         0.00000000       0.00000000       0.00000000          1
6
pbc=[F, F, F] list_num_par=6 frozen=false iter=20000 energy=-1.26974174 Lattice="15.00000000 0.00000000 0.00000000 0.00000000 15.00000000 0.00000000 0.00000000 0.00000000 15.00000000" energy_frozen_part=0.00000000 Properties=species:S:1:pos:R:3:velocities:R:3:Z:I:1
H         3.54639126       8.27292817       3.04303384         0.00000000       0.00000000       0.00000000          1
H         0.70244874       8.21624104       0.30126734         0.00000000       0.00000000       0.00000000          1
H         1.03353932       7.07143847       2.82794229         0.00000000       0.00000000       0.00000000          1
H         2.95514902       6.65553451       0.84331408         0.00000000       0.00000000       0.00000000          1
H         1.29368547       9.83363240       2.50098297         0.00000000       0.00000000       0.00000000          1
H         3.21529777       9.41773118       0.51635740         0.00000000       0.00000000       0.00000000          1
6
pbc=[F, F, F] list_num_par=6 frozen=false iter=20000 energy=-1.26974174 Lattice="15.00000000 0.00000000 0.00000000 0.00000000 15.00000000 0.00000000 0.00000000 0.00000000 15.00000000" energy_frozen_part=0.00000000 Properties=species:S:1:pos:R:3:velocities:R:3:Z:I:1
H         3.55536679       8.26518179       3.03995145         0.00000000       0.00000000       0.00000000          1
H         0.69617623       8.21550826       0.31394274         0.00000000       0.00000000       0.00000000          1
H         1.04142949       7.06407540       2.83570342         0.00000000       0.00000000       0.00000000          1
H         2.95196753       6.65355950       0.83930344         0.00000000       0.00000000       0.00000000          1
H         1.29957989       9.82713714       2.51458168         0.00000000       0.00000000       0.00000000          1
H         3.21011720       9.41662011       0.51818496         0.00000000       0.00000000       0.00000000          1
6
pbc=[F, F, F] list_num_par=6 frozen=false iter=20000 energy=-1.26974174 Lattice="15.00000000 0.00000000 0.00000000 0.00000000 15.00000000 0.00000000 0.00000000 0.00000000 15.00000000" energy_frozen_part=0.00000000 Properties=species:S:1:pos:R:3:velocities:R:3:Z:I:1
H         3.55541432       8.26507015       3.03982271         0.00000000       0.00000000       0.00000000          1
H         0.69629260       8.21489526       0.31374033         0.00000000       0.00000000       0.00000000          1
H         1.04157717       7.06372479       2.83562175         0.00000000       0.00000000       0.00000000          1
H         2.95219935       6.65318660       0.83931445         0.00000000       0.00000000       0.00000000          1
H         1.29950753       9.82678000       2.51424937         0.00000000       0.00000000       0.00000000          1
H         3.21012426       9.41624074       0.51794327         0.00000000       0.00000000       0.00000000          1
6
pbc=[F, F, F] list_num_par=6 frozen=false iter=20000 energy=-1.26974174 Lattice="15.00000000 0.00000000 0.00000000 0.00000000 15.00000000 0.00000000 0.00000000 0.00000000 15.00000000" energy_frozen_part=0.00000000 Properties=species:S:1:pos:R:3:velocities:R:3:Z:I:1
H         3.54664659       8.27302184       3.04292279         0.00000000       0.00000000       0.00000000          1
H         0.70252525       8.21628167       0.30133702         0.00000000       0.00000000       0.00000000          1
H         1.03374035       7.07160785       2.82805496         0.00000000       0.00000000       0.00000000          1
H         2.95520653       6.65552850       0.84333049         0.00000000       0.00000000       0.00000000          1
H         1.29395709       9.83377490       2.50092629         0.00000000       0.00000000       0.00000000          1
H         3.21543577       9.41769517       0.51620447         0.00000000       0.00000000       0.00000000          1
6
pbc=[F, F, F] list_num_par=6 frozen=false iter=20000 energy=-1.26974174 Lattice="15.00000000 0.00000000 0.00000000 0.00000000 15.00000000 0.00000000 0.00000000 0.00000000 15.00000000" energy_frozen_part=0.00000000 Properties=species:S:1:pos:R:3:velocities:R:3:Z:I:1
H         3.54649208       8.27291339       3.04291074         0.00000000       0.00000000       0.00000000          1
H         0.70238072       8.21626501       0.30130700         0.00000000       0.00000000       0.00000000          1
H         1.03360327       7.07146934       2.82796482         0.00000000       0.00000000       0.00000000          1
H         2.95509188       6.65551866       0.84323389         0.00000000       0.00000000       0.00000000          1
H         1.29378194       9.83365292       2.50097863         0.00000000       0.00000000       0.00000000          1
H         3.21527164       9.41770244       0.51624760         0.00000000       0.00000000       0.00000000          1
6
pbc=[F, F, F] list_num_par=6 frozen=false iter=20000 energy=-1.26974174 Lattice="15.00000000 0.00000000 0.00000000 0.00000000 15.00000000 0.00000000 0.00000000 0.00000000 15.00000000" energy_frozen_part=0.00000000 Properties=species:S:1:pos:R:3:velocities:R:3:Z:I:1
H         3.55537554       8.26519623       3.03995086         0.00000000       0.00000000       0.00000000          1
H         0.69617855       8.21550458       0.31395041         0.00000000       0.00000000       0.00000000          1
H         1.04143505       7.06407310       2.83571867         0.00000000       0.00000000       0.00000000          1
H         2.95197406       6.65356416       0.83931167         0.00000000       0.00000000       0.00000000          1
H         1.29957819       9.82713786       2.51459201         0.00000000       0.00000000       0.00000000          1
H         3.21011543       9.41662512       0.51818639         0.00000000       0.00000000       0.00000000          1
6
pbc=[F, F, F] list_num_par=6 frozen=false iter=20000 energy=-1.26974174 Lattice="15.00000000 0.00000000 0.00000000 0.00000000 15.00000000 0.00000000 0.00000000 0.00000000 15.00000000" energy_frozen_part=0.00000000 Properties=species:S:1:pos:R:3:velocities:R:3:Z:I:1
H         3.54663050       8.27267194       3.04288257         0.00000000       0.00000000       0.00000000          1
H         0.70265464       8.21636073       0.30113043         0.00000000       0.00000000       0.00000000          1
H         1.03367322       7.07140582       2.82774120         0.00000000       0.00000000       0.00000000          1
H         2.95523137       6.65543973       0.84308479         0.00000000       0.00000000       0.00000000          1
H         1.29406254       9.83359303       2.50092742         0.00000000       0.00000000       0.00000000          1
H         3.21561629       9.41762415       0.51626062         0.00000000       0.00000000       0.00000000          1
6
pbc=[F, F, F] list_num_par=6 frozen=false iter=20000 energy=-1.26974174 Lattice="15.00000000 0.00000000 0.00000000 0.00000000 15.00000000 0.00000000 0.00000000 0.00000000 15.00000000" energy_frozen_part=0.00000000 Properties=species:S:1:pos:R:3:velocities:R:3:Z:I:1
H         3.54664703       8.27302319       3.04291887         0.00000000       0.00000000       0.00000000          1
H         0.70251721       8.21629853       0.30133967         0.00000000       0.00000000       0.00000000          1
H         1.03372966       7.07161798       2.82805252         0.00000000       0.00000000       0.00000000          1
H         2.95520012       6.65553873       0.84332487         0.00000000       0.00000000       0.00000000          1
H         1.29396864       9.83377678       2.50093694         0.00000000       0.00000000       0.00000000          1
H         3.21543248       9.41770558       0.51620520         0.00000000       0.00000000       0.00000000          1
6
pbc=[F, F, F] list_num_par=6 frozen=false iter=20000 energy=-1.26974174 Lattice="15.00000000 0.00000000 0.00000000 0.00000000 15.00000000 0.00000000 0.00000000 0.00000000 15.00000000" energy_frozen_part=0.00000000 Properties=species:S:1:pos:R:3:velocities:R:3:Z:I:1
H         3.54662560       8.27265950       3.04288150         0.00000000       0.00000000       0.00000000          1
H         0.70264392       8.21636112       0.30112836         0.00000000       0.00000000       0.00000000          1
H         1.03366655       7.07139192       2.82773884         0.00000000       0.00000000       0.00000000          1
H         2.95522274       6.65544660       0.84307939         0.00000000       0.00000000       0.00000000          1
H         1.29404836       9.83357578       2.50093153         0.00000000       0.00000000       0.00000000          1
H         3.21560489       9.41763309       0.51627461         0.00000000       0.00000000       0.00000000          1
6
pbc=[F, F, F] list_num_par=6 frozen=false iter=20000 energy=-1.26974174 Lattice="15.00000000 0.00000000 0.00000000 0.00000000 15.00000000 0.00000000 0.00000000 0.00000000 15.00000000" energy_frozen_part=0.00000000 Properties=species:S:1:pos:R:3:velocities:R:3:Z:I:1
H         3.54666823       8.27297466       3.04289533         0.00000000       0.00000000       0.00000000          1
H         0.70249563       8.21627736       0.30135984         0.00000000       0.00000000       0.00000000          1
H         1.03375629       7.07156789       2.82805547         0.00000000       0.00000000       0.00000000          1
H         2.95518404       6.65551283       0.84329297         0.00000000       0.00000000       0.00000000          1
H         1.29397566       9.83373975       2.50096065         0.00000000       0.00000000       0.00000000          1
H         3.21540634       9.41768042       0.51619444         0.00000000       0.00000000       0.00000000          1
6
pbc=[F, F, F] list_num_par=6 frozen=false iter=20000 energy=-1.26974174 Lattice="15.00000000 0.00000000 0.00000000 0.00000000 15.00000000 0.00000000 0.00000000 0.00000000 15.00000000" energy_frozen_part=0.00000000 Properties=species:S:1:pos:R:3:velocities:R:3:Z:I:1
H         3.54647557       8.27292355       3.04289982         0.00000000       0.00000000       0.00000000          1
H         0.70237834       8.21626768       0.30128806         0.00000000       0.00000000       0.00000000          1
H         1.03358641       7.07148452       2.82795408         0.00000000       0.00000000       0.00000000          1
H         2.95508053       6.65551679       0.84323287         0.00000000       0.00000000       0.00000000          1
H         1.29377733       9.83367413       2.50095430         0.00000000       0.00000000       0.00000000          1
H         3.21526700       9.41770178       0.51622992         0.00000000       0.00000000       0.00000000          1
6
pbc=[F, F, F] list_num_par=6 frozen=false iter=20000 energy=-1.26974174 Lattice="15.00000000 0.00000000 0.00000000 0.00000000 15.00000000 0.00000000 0.00000000 0.00000000 15.00000000" energy_frozen_part=0.00000000 Properties=species:S:1:pos:R:3:velocities:R:3:Z:I:1
H         3.54665890       8.27306009       3.04291170         0.00000000       0.00000000       0.00000000          1
H         0.70250935       8.21623183       0.30135716         0.00000000       0.00000000       0.00000000          1
H         1.03378009       7.07157850       2.82807527         0.00000000       0.00000000       0.00000000          1
H         2.95524097       6.65554172       0.84333754         0.00000000       0.00000000       0.00000000          1
H         1.29393415       9.83375078       2.50092879         0.00000000       0.00000000       0.00000000          1
H         3.21539486       9.41771499       0.51619648         0.00000000       0.00000000       0.00000000          1
6
pbc=[F, F, F] list_num_par=6 frozen=false iter=20000 energy=-1.26974174 Lattice="15.00000000 0.00000000 0.00000000 0.00000000 15.00000000 0.00000000 0.00000000 0.00000000 15.00000000" energy_frozen_part=0.00000000 Properties=species:S:1:pos:R:3:velocities:R:3:Z:I:1
H         3.55538366       8.26518004       3.03991408         0.00000000       0.00000000       0.00000000          1
H         0.69615368       8.21553789       0.31395358         0.00000000       0.00000000       0.00000000          1
H         1.04143790       7.06407549       2.83570157         0.00000000       0.00000000       0.00000000          1
H         2.95194316       6.65357247       0.83926930         0.00000000       0.00000000       0.00000000          1
H         1.29958527       9.82714345       2.51460446         0.00000000       0.00000000       0.00000000          1
H         3.21009796       9.41664252       0.51817701         0.00000000       0.00000000       0.00000000          1
6
pbc=[F, F, F] list_num_par=6 frozen=false iter=20000 energy=-1.26974174 Lattice="15.00000000 0.00000000 0.00000000 0.00000000 15.00000000 0.00000000 0.00000000 0.00000000 15.00000000" energy_frozen_part=0.00000000 Properties=species:S:1:pos:R:3:velocities:R:3:Z:I:1
H         3.55536205       8.26518940       3.03995379         0.00000000       0.00000000       0.00000000          1
H         0.69617071       8.21550648       0.31394134         0.00000000       0.00000000       0.00000000          1
H         1.04142237       7.06407465       2.83570125         0.00000000       0.00000000       0.00000000          1
H         2.95196010       6.65355550       0.83930976         0.00000000       0.00000000       0.00000000          1
H         1.29956845       9.82714494       2.51458669         0.00000000       0.00000000       0.00000000          1
H         3.21010982       9.41662031       0.51819025         0.00000000       0.00000000       0.00000000          1
6
pbc=[F, F, F] list_num_par=6 frozen=false iter=20000 energy=-1.26974174 Lattice="15.00000000 0.00000000 0.00000000 0.00000000 15.00000000 0.00000000 0.00000000 0.00000000 15.00000000" energy_frozen_part=0.00000000 Properties=species:S:1:pos:R:3:velocities:R:3:Z:I:1
H         3.55537876       8.26519133       3.03993395         0.00000000       0.00000000       0.00000000          1
H         0.69615018       8.21552060       0.31395588         0.00000000       0.00000000       0.00000000          1
H         1.04142831       7.06407926       2.83571419         0.00000000       0.00000000       0.00000000          1
H         2.95194075       6.65356631       0.83928946         0.00000000       0.00000000       0.00000000          1
H         1.29958171       9.82714391       2.51460006         0.00000000       0.00000000       0.00000000          1
H         3.21009147       9.41662747       0.51817684         0.00000000       0.00000000       0.00000000          1
6
pbc=[F, F, F] list_num_par=6 frozen=false iter=20000 energy=-1.26974174 Lattice="15.00000000 0.00000000 0.00000000 0.00000000 15.00000000 0.00000000 0.00000000 0.00000000 15.00000000" energy_frozen_part=0.00000000 Properties=species:S:1:pos:R:3:velocities:R:3:Z:I:1
H         3.55552306       8.26512223       3.03981359         0.00000000       0.00000000       0.00000000          1
H         0.69634086       8.21506946       0.31379662         0.00000000       0.00000000       0.00000000          1
H         1.04161158       7.06393117       2.83569164         0.00000000       0.00000000       0.00000000          1
H         2.95216381       6.65322809       0.83934374         0.00000000       0.00000000       0.00000000          1
H         1.29969858       9.82696206       2.51426130         0.00000000       0.00000000       0.00000000          1
H         3.21024712       9.41626477       0.51791419         0.00000000       0.00000000       0.00000000          1
6
pbc=[F, F, F] list_num_par=6 frozen=false iter=20000 energy=-1.26974174 Lattice="15.00000000 0.00000000 0.00000000 0.00000000 15.00000000 0.00000000 0.00000000 0.00000000 15.00000000" energy_frozen_part=0.00000000 Properties=species:S:1:pos:R:3:velocities:R:3:Z:I:1
H         3.54666557       8.27298615       3.04293297         0.00000000       0.00000000       0.00000000          1
H         0.70252945       8.21629069       0.30135351         0.00000000       0.00000000       0.00000000          1
H         1.03375013       7.07159753       2.82806540         0.00000000       0.00000000       0.00000000          1
H         2.95520419       6.65551060       0.84333316         0.00000000       0.00000000       0.00000000          1
H         1.29399650       9.83376373       2.50094905         0.00000000       0.00000000       0.00000000          1
H         3.21545340       9.41767541       0.51622098         0.00000000       0.00000000       0.00000000          1
6
pbc=[F, F, F] list_num_par=6 frozen=false iter=20000 energy=-1.26974174 Lattice="15.00000000 0.00000000 0.00000000 0.00000000 15.00000000 0.00000000 0.00000000 0.00000000 15.00000000" energy_frozen_part=0.00000000 Properties=species:S:1:pos:R:3:velocities:R:3:Z:I:1
H         3.54666747       8.27300244       3.04292960         0.00000000       0.00000000       0.00000000          1
H         0.70254083       8.21629067       0.30134583         0.00000000       0.00000000       0.00000000          1
H         1.03375029       7.07160578       2.82805530         0.00000000       0.00000000       0.00000000          1
H         2.95522005       6.65552225       0.84333729         0.00000000       0.00000000       0.00000000          1
H         1.29399763       9.83376778       2.50093987         0.00000000       0.00000000       0.00000000          1
H         3.21546260       9.41768265       0.51621568         0.00000000       0.00000000       0.00000000          1
6
pbc=[F, F, F] list_num_par=6 frozen=false iter=20000 energy=-1.26974174 Lattice="15.00000000 0.00000000 0.00000000 0.00000000 15.00000000 0.00000000 0.00000000 0.00000000 15.00000000" energy_frozen_part=0.00000000 Properties=species:S:1:pos:R:3:velocities:R:3:Z:I:1
H         3.55538153       8.26527998       3.03997425         0.00000000       0.00000000       0.00000000          1
H         0.69621928       8.21549446       0.31393485         0.00000000       0.00000000       0.00000000          1
H         1.04146078       7.06411216       2.83572004         0.00000000       0.00000000       0.00000000          1
H         2.95202829       6.65359374       0.83935722         0.00000000       0.00000000       0.00000000          1
H         1.29956331       9.82717727       2.51455691         0.00000000       0.00000000       0.00000000          1
H         3.21012873       9.41665824       0.51818648         0.00000000       0.00000000       0.00000000          1
6
pbc=[F, F, F] list_num_par=6 frozen=false iter=20000 energy=-1.26974174 Lattice="15.00000000 0.00000000 0.00000000 0.00000000 15.00000000 0.00000000 0.00000000 0.00000000 15.00000000" energy_frozen_part=0.00000000 Properties=species:S:1:pos:R:3:velocities:R:3:Z:I:1
H         3.55536751       8.26515426       3.03989929         0.00000000       0.00000000       0.00000000          1
H         0.69614344       8.21556190       0.31392024         0.00000000       0.00000000       0.00000000          1
H         1.04140796       7.06408193       2.83566155         0.00000000       0.00000000       0.00000000          1
H         2.95191196       6.65355897       0.83923561         0.00000000       0.00000000       0.00000000          1
H         1.29959482       9.82715185       2.51457756         0.00000000       0.00000000       0.00000000          1
H         3.21010709       9.41662239       0.51815593         0.00000000       0.00000000       0.00000000          1
6
pbc=[F, F, F] list_num_par=6 frozen=false iter=20000 energy=-1.26974174 Lattice="15.00000000 0.00000000 0.00000000 0.00000000 15.00000000 0.00000000 0.00000000 0.00000000 15.00000000" energy_frozen_part=0.00000000 Properties=species:S:1:pos:R:3:velocities:R:3:Z:I:1
H         3.55536477       8.26518696       3.03993892         0.00000000       0.00000000       0.00000000          1
H         0.69616579       8.21552137       0.31394080         0.00000000       0.00000000       0.00000000          1
H         1.04141915       7.06408362       2.83570054         0.00000000       0.00000000       0.00000000          1
H         2.95194392       6.65355611       0.83929707         0.00000000       0.00000000       0.00000000          1
H         1.29958077       9.82715109       2.51458859         0.00000000       0.00000000       0.00000000          1
H         3.21011255       9.41662421       0.51818475         0.00000000       0.00000000       0.00000000          1
6
pbc=[F, F, F] list_num_par=6 frozen=false iter=20000 energy=-1.26974174 Lattice="15.00000000 0.00000000 0.00000000 0.00000000 15.00000000 0.00000000 0.00000000 0.00000000 15.00000000" energy_frozen_part=0.00000000 Properties=species:S:1:pos:R:3:velocities:R:3:Z:I:1
H         3.54663215       8.27266103       3.04287501         0.00000000       0.00000000       0.00000000          1
H         0.70264863       8.21636810       0.30113720         0.00000000       0.00000000       0.00000000          1
H         1.03367706       7.07139775       2.82774767         0.00000000       0.00000000       0.00000000          1
H         2.95522950       6.65544425       0.84307547         0.00000000       0.00000000       0.00000000          1
H         1.29405155       9.83358481       2.50094045         0.00000000       0.00000000       0.00000000          1
H         3.21560369       9.41763154       0.51627248         0.00000000       0.00000000       0.00000000          1
6
pbc=[F, F, F] list_num_par=6 frozen=false iter=20000 energy=-1.26974174 Lattice="15.00000000 0.00000000 0.00000000 0.00000000 15.00000000 0.00000000 0.00000000 0.00000000 15.00000000" energy_frozen_part=0.00000000 Properties=species:S:1:pos:R:3:velocities:R:3:Z:I:1
H         3.54641133       8.27293327       3.04302723         0.00000000       0.00000000       0.00000000          1
H         0.70245805       8.21624010       0.30126047         0.00000000       0.00000000       0.00000000          1