6
pbc=[F, F, F] list_num_par=6 energy=-1.26974174 iter=20000 frozen=false Lattice="15.00000000 0.00000000 0.00000000 0.00000000 15.00000000 0.00000000 0.00000000 0.00000000 15.00000000" energy_frozen_part=0.00000000 Properties=species:S:1:pos:R:3:velocities:R:3:Z:I:1
H         3.54558971       9.58420028       1.27327035         0.00000000       0.00000000       0.00000000          1
H         1.07369635       6.87905761       2.74992498         0.00000000       0.00000000       0.00000000          1
H         2.35594649       7.25298579       0.29629413         0.00000000       0.00000000       0.00000000          1
H         0.76937102       9.28753646       1.36757981         0.00000000       0.00000000       0.00000000          1
H         3.84991396       7.17570898       2.65561667         0.00000000       0.00000000       0.00000000          1
H         2.26333859       9.21026996       3.72689742         0.00000000       0.00000000       0.00000000          1
6
pbc=[F, F, F] list_num_par=6 energy=-1.26974174 iter=20000 frozen=false Lattice="15.00000000 0.00000000 0.00000000 0.00000000 15.00000000 0.00000000 0.00000000 0.00000000 15.00000000" energy_frozen_part=0.00000000 Properties=species:S:1:pos:R:3:velocities:R:3:Z:I:1
H         2.93818328       8.09180502       0.93438807         0.00000000       0.00000000       0.00000000          1
H         2.38483012      11.16129081       3.35938270         0.00000000       0.00000000       0.00000000          1
H         1.01496478       8.78283102       2.83910905         0.00000000       0.00000000       0.00000000          1
H         1.60581636      10.54025204       0.74945605         0.00000000       0.00000000       0.00000000          1
H         3.71719908       8.71284133       3.54431606         0.00000000       0.00000000       0.00000000          1
H         4.30805344      10.47026545       1.45466307         0.00000000       0.00000000       0.00000000          1
6
pbc=[F, F, F] list_num_par=6 energy=-1.26974174 iter=20000 frozen=false Lattice="15.00000000 0.00000000 0.00000000 0.00000000 15.00000000 0.00000000 0.00000000 0.00000000 15.00000000" energy_frozen_part=0.00000000 Properties=species:S:1:pos:R:3:velocities:R:3:Z:I:1
H         2.93817008       8.09176321       0.93412516         0.00000000       0.00000000       0.00000000          1
H         2.38456693      11.16110469       3.35924260         0.00000000       0.00000000       0.00000000          1
H         1.01490855       8.78255138       2.83889811         0.00000000       0.00000000       0.00000000          1
H         1.60557887      10.54009245       0.74929834         0.00000000       0.00000000       0.00000000          1
H         3.71715499       8.71277613       3.54406844         0.00000000       0.00000000       0.00000000          1
H         4.30782766      10.47032744       1.45447142         0.00000000       0.00000000       0.00000000          1
6
pbc=[F, F, F] list_num_par=6 energy=-1.26974174 iter=20000 frozen=false Lattice="15.00000000 0.00000000 0.00000000 0.00000000 15.00000000 0.00000000 0.00000000 0.00000000 15.00000000" energy_frozen_part=0.00000000 Properties=species:S:1:pos:R:3:velocities:R:3:Z:I:1
H         2.93829600       8.08034423       0.93348204         0.00000000       0.00000000       0.00000000          1
H         2.38452765      11.15780854       3.34825616         0.00000000       0.00000000       0.00000000          1
H         1.01282207       8.77930432       2.83304284         0.00000000       0.00000000       0.00000000          1
H         1.60895942      10.52969585       0.73899684         0.00000000       0.00000000       0.00000000          1
H         3.71386015       8.70845394       3.54274167         0.00000000       0.00000000       0.00000000          1
H         4.30999486      10.45884544       1.44869728         0.00000000       0.00000000       0.00000000          1
6
pbc=[F, F, F] list_num_par=6 energy=-1.26974174 iter=20000 frozen=false Lattice="15.00000000 0.00000000 0.00000000 0.00000000 15.00000000 0.00000000 0.00000000 0.00000000 15.00000000" energy_frozen_part=0.00000000 Properties=species:S:1:pos:R:3:velocities:R:3:Z:I:1
H         3.54559456       9.58418205       1.27326766         0.00000000       0.00000000       0.00000000          1
H         1.07369273       6.87905016       2.74993109         0.00000000       0.00000000       0.00000000          1
H         2.35594267       7.25296608       0.29630634         0.00000000       0.00000000       0.00000000          1
H         0.76937829       9.28753801       1.36757642         0.00000000       0.00000000       0.00000000          1
H         3.84991056       7.17570193       2.65562511         0.00000000       0.00000000       0.00000000          1
H         2.26334196       9.21026328       3.72689808         0.00000000       0.00000000       0.00000000          1
6
pbc=[F, F, F] list_num_par=6 energy=-1.26974174 iter=20000 frozen=false Lattice="15.00000000 0.00000000 0.00000000 0.00000000 15.00000000 0.00000000 0.00000000 0.00000000 15.00000000" energy_frozen_part=0.00000000 Properties=species:S:1:pos:R:3:velocities:R:3:Z:I:1
H         3.54559018       9.58418054       1.27326869         0.00000000       0.00000000       0.00000000          1
H         1.07369628       6.87903462       2.74991615         0.00000000       0.00000000       0.00000000          1
H         2.35595942       7.25296108       0.29629744         0.00000000       0.00000000       0.00000000          1
H         0.76937510       9.28751198       1.36755753         0.00000000       0.00000000       0.00000000          1
H         3.84990857       7.17570637       2.65562395         0.00000000       0.00000000       0.00000000          1
H         2.26331518       9.21025762       3.72688946         0.00000000       0.00000000       0.00000000          1
6
pbc=[F, F, F] list_num_par=6 energy=-1.26974174 iter=20000 frozen=false Lattice="15.00000000 0.00000000 0.00000000 0.00000000 15.00000000 0.00000000 0.00000000 0.00000000 15.00000000" energy_frozen_part=0.00000000 Properties=species:S:1:pos:R:3:velocities:R:3:Z:I:1
H         2.93818907       8.09179223       0.93440404         0.00000000       0.00000000       0.00000000          1
H         2.38480043      11.16128580       3.35939570         0.00000000       0.00000000       0.00000000          1
H         1.01493926       8.78282325       2.83910487         0.00000000       0.00000000       0.00000000          1
H         1.60582292      10.54023486       0.74945650         0.00000000       0.00000000       0.00000000          1
H         3.71715692       8.71283063       3.54434912         0.00000000       0.00000000       0.00000000          1
H         4.30805122      10.47024742       1.45470213         0.00000000       0.00000000       0.00000000          1
6
pbc=[F, F, F] list_num_par=6 energy=-1.26974174 iter=20000 frozen=false Lattice="15.00000000 0.00000000 0.00000000 0.00000000 15.00000000 0.00000000 0.00000000 0.00000000 15.00000000" energy_frozen_part=0.00000000 Properties=species:S:1:pos:R:3:velocities:R:3:Z:I:1
H         2.93818479       8.09180738       0.93438105         0.00000000       0.00000000       0.00000000          1
H         2.38481375      11.16129267       3.35937973         0.00000000       0.00000000       0.00000000          1
H         1.01495254       8.78283481       2.83909695         0.00000000       0.00000000       0.00000000          1
H         1.60581510      10.54025500       0.74944656         0.00000000       0.00000000       0.00000000          1
H         3.71718141       8.71284358       3.54431940         0.00000000       0.00000000       0.00000000          1
H         4.30804653      10.47026506       1.45465992         0.00000000       0.00000000       0.00000000          1
6
pbc=[F, F, F] list_num_par=6 energy=-1.26974174 iter=20000 frozen=false Lattice="15.00000000 0.00000000 0.00000000 0.00000000 15.00000000 0.00000000 0.00000000 0.00000000 15.00000000" energy_frozen_part=0.00000000 Properties=species:S:1:pos:R:3:velocities:R:3:Z:I:1
H         2.93836681       8.08032755       0.93350164         0.00000000       0.00000000       0.00000000          1
H         2.38454092      11.15775422       3.34831035         0.00000000       0.00000000       0.00000000          1
H         1.01289536       8.77922021       2.83307420         0.00000000       0.00000000       0.00000000          1
H         1.60897412      10.52964927       0.73904784         0.00000000       0.00000000       0.00000000          1
H         3.71393233       8.70842387       3.54276894         0.00000000       0.00000000       0.00000000          1
H         4.31001304      10.45886099       1.44874049         0.00000000       0.00000000       0.00000000          1
6
pbc=[F, F, F] list_num_par=6 energy=-1.26974174 iter=20000 frozen=false Lattice="15.00000000 0.00000000 0.00000000 0.00000000 15.00000000 0.00000000 0.00000000 0.00000000 15.00000000" energy_frozen_part=0.00000000 Properties=species:S:1:pos:R:3:velocities:R:3:Z:I:1
H         2.93835244       8.08024633       0.93351382         0.00000000       0.00000000       0.00000000          1
H         2.38453224      11.15781241       3.34815115         0.00000000       0.00000000       0.00000000          1
H         1.01291651       8.77922255       2.83310011         0.00000000       0.00000000       0.00000000          1
H         1.60890650      10.52953317       0.73894478         0.00000000       0.00000000       0.00000000          1
H         3.71398245       8.70853330       3.54271704         0.00000000       0.00000000       0.00000000          1
H         4.30996081      10.45884022       1.44855598         0.00000000       0.00000000       0.00000000          1
6
pbc=[F, F, F] list_num_par=6 energy=-1.26974174 iter=20000 frozen=false Lattice="15.00000000 0.00000000 0.00000000 0.00000000 15.00000000 0.00000000 0.00000000 0.00000000 15.00000000" energy_frozen_part=0.00000000 Properties=species:S:1:pos:R:3:velocities:R:3:Z:I:1
H         2.93864704       8.07992924       0.93272830         0.00000000       0.00000000       0.00000000          1
H         2.38429974      11.15671554       3.34823607         0.00000000       0.00000000       0.00000000          1
H         1.01348073       8.77770169       2.83302539         0.00000000       0.00000000       0.00000000          1
H         1.60817814      10.52873991       0.73910342         0.00000000       0.00000000       0.00000000          1
H         3.71477082       8.70791401       3.54185286         0.00000000       0.00000000       0.00000000          1
H         4.30946586      10.45894984       1.44793400         0.00000000       0.00000000       0.00000000          1
6
pbc=[F, F, F] list_num_par=6 energy=-1.26974174 iter=20000 frozen=false Lattice="15.00000000 0.00000000 0.00000000 0.00000000 15.00000000 0.00000000 0.00000000 0.00000000 15.00000000" energy_frozen_part=0.00000000 Properties=species:S:1:pos:R:3:velocities:R:3:Z:I:1
H         2.93817870       8.09181358       0.93437664         0.00000000       0.00000000       0.00000000          1
H         2.38480845      11.16129318       3.35937569         0.00000000       0.00000000       0.00000000          1
H         1.01494049       8.78283859       2.83909334         0.00000000       0.00000000       0.00000000          1
H         1.60581305      10.54025907       0.74944320         0.00000000       0.00000000       0.00000000          1
H         3.71716882       8.71284840       3.54430979         0.00000000       0.00000000       0.00000000          1
H         4.30804875      10.47027181       1.45466085         0.00000000       0.00000000       0.00000000          1
6
pbc=[F, F, F] list_num_par=6 energy=-1.26974174 iter=20000 frozen=false Lattice="15.00000000 0.00000000 0.00000000 0.00000000 15.00000000 0.00000000 0.00000000 0.00000000 15.00000000" energy_frozen_part=0.00000000 Properties=species:S:1:pos:R:3:velocities:R:3:Z:I:1
H         2.93830214       8.08034592       0.93348163         0.00000000       0.00000000       0.00000000          1
H         2.38451406      11.15779976       3.34826396         0.00000000       0.00000000       0.00000000          1
H         1.01281895       8.77929316       2.83303284         0.00000000       0.00000000       0.00000000          1
H         1.60896380      10.52970016       0.73899850         0.00000000       0.00000000       0.00000000          1
H         3.71384613       8.70845010       3.54275037         0.00000000       0.00000000       0.00000000          1
H         4.30999502      10.45885216       1.44871185         0.00000000       0.00000000       0.00000000          1
6
pbc=[F, F, F] list_num_par=6 energy=-1.26974174 iter=20000 frozen=false Lattice="15.00000000 0.00000000 0.00000000 0.00000000 15.00000000 0.00000000 0.00000000 0.00000000 15.00000000" energy_frozen_part=0.00000000 Properties=species:S:1:pos:R:3:velocities:R:3:Z:I:1
H         2.93834717       8.08031202       0.93353641         0.00000000       0.00000000       0.00000000          1
H         2.38454226      11.15780646       3.34826321         0.00000000       0.00000000       0.00000000          1
H         1.01289683       8.77924976       2.83312098         0.00000000       0.00000000       0.00000000          1
H         1.60893682      10.52961618       0.73902755         0.00000000       0.00000000       0.00000000          1
H         3.71395055       8.70849849       3.54277225         0.00000000       0.00000000       0.00000000          1
H         4.30998402      10.45886962       1.44867317         0.00000000       0.00000000       0.00000000          1
6
pbc=[F, F, F] list_num_par=6 energy=-1.26974174 iter=20000 frozen=false Lattice="15.00000000 0.00000000 0.00000000 0.00000000 15.00000000 0.00000000 0.00000000 0.00000000 15.00000000" energy_frozen_part=0.00000000 Properties=species:S:1:pos:R:3:velocities:R:3:Z:I:1
H         2.93818999       8.09179694       0.93435459         0.00000000       0.00000000       0.00000000          1
H         2.38481621      11.16128076       3.35934723         0.00000000       0.00000000       0.00000000          1
H         1.01496559       8.78281569       2.83908662         0.00000000       0.00000000       0.00000000          1
H         1.60579607      10.54022739       0.74942660         0.00000000       0.00000000       0.00000000          1
H         3.71720453       8.71284377       3.54427808         0.00000000       0.00000000       0.00000000          1
H         4.30803603      10.47026918       1.45461804         0.00000000       0.00000000       0.00000000          1
6
pbc=[F, F, F] list_num_par=6 energy=-1.26974174 iter=20000 frozen=false Lattice="15.00000000 0.00000000 0.00000000 0.00000000 15.00000000 0.00000000 0.00000000 0.00000000 15.00000000" energy_frozen_part=0.00000000 Properties=species:S:1:pos:R:3:velocities:R:3:Z:I:1
H         3.54559149       9.58418745       1.27326653         0.00000000       0.00000000       0.00000000          1
H         1.07369768       6.87904487       2.74993681         0.00000000       0.00000000       0.00000000          1
H         2.35595017       7.25296634       0.29631005         0.00000000       0.00000000       0.00000000          1
H         0.76937029       9.28752921       1.36758758         0.00000000       0.00000000       0.00000000          1
H         3.84991912       7.17570574       2.65562074         0.00000000       0.00000000       0.00000000          1
H         2.26334174       9.21026225       3.72689808         0.00000000       0.00000000       0.00000000          1
6
pbc=[F, F, F] list_num_par=6 energy=-1.26974174 iter=20000 frozen=false Lattice="15.00000000 0.00000000 0.00000000 0.00000000 15.00000000 0.00000000 0.00000000 0.00000000 15.00000000" energy_frozen_part=0.00000000 Properties=species:S:1:pos:R:3:velocities:R:3:Z:I:1
H         2.93836238       8.08031641       0.93351578         0.00000000       0.00000000       0.00000000          1
H         2.38457411      11.15779484       3.34826455         0.00000000       0.00000000       0.00000000          1
H         1.01295585       8.77922817       2.83315009         0.00000000       0.00000000       0.00000000          1
H         1.60892439      10.52961150       0.73904334         0.00000000       0.00000000       0.00000000          1
H         3.71402184       8.70849931       3.54273908         0.00000000       0.00000000       0.00000000          1
H         4.30998987      10.45888288       1.44864451         0.00000000       0.00000000       0.00000000          1
6
pbc=[F, F, F] list_num_par=6 energy=-1.26974174 iter=20000 frozen=false Lattice="15.00000000 0.00000000 0.00000000 0.00000000 15.00000000 0.00000000 0.00000000 0.00000000 15.00000000" energy_frozen_part=0.00000000 Properties=species:S:1:pos:R:3:velocities:R:3:Z:I:1
H         2.93818962       8.09172754       0.93422955         0.00000000       0.00000000       0.00000000          1
H         2.38473714      11.16113616       3.35930347         0.00000000       0.00000000       0.00000000          1
H         1.01499121       8.78261085       2.83903124         0.00000000       0.00000000       0.00000000          1
H         1.60567117      10.54009431       0.74939182         0.00000000       0.00000000       0.00000000          1
H         3.71725244       8.71276382       3.54414845         0.00000000       0.00000000       0.00000000          1
H         4.30793311      10.47025519       1.45449866         0.00000000       0.00000000       0.00000000          1
6
pbc=[F, F, F] list_num_par=6 energy=-1.26974174 iter=20000 frozen=false Lattice="15.00000000 0.00000000 0.00000000 0.00000000 15.00000000 0.00000000 0.00000000 0.00000000 15.00000000" energy_frozen_part=0.00000000 Properties=species:S:1:pos:R:3:velocities:R:3:Z:I:1
H         2.93817334       8.09174432       0.93411647         0.00000000       0.00000000       0.00000000          1
H         2.38456159      11.16110586       3.35921335         0.00000000       0.00000000       0.00000000          1
H         1.01491381       8.78253048       2.83889798         0.00000000       0.00000000       0.00000000          1
H         1.60557429      10.54006310       0.74927709         0.00000000       0.00000000       0.00000000          1
H         3.71716658       8.71277998       3.54405369         0.00000000       0.00000000       0.00000000          1
H         4.30782460      10.47031908       1.45444647         0.00000000       0.00000000       0.00000000          1
6
pbc=[F, F, F] list_num_par=6 energy=-1.26974174 iter=20000 frozen=false Lattice="15.00000000 0.00000000 0.00000000 0.00000000 15.00000000 0.00000000 0.00000000 0.00000000 15.00000000" energy_frozen_part=0.00000000 Properties=species:S:1:pos:R:3:velocities:R:3:Z:I:1
H         2.93816314       8.09173949       0.93412307         0.00000000       0.00000000       0.00000000          1
H         2.38457680      11.16110647       3.35922271         0.00000000       0.00000000       0.00000000          1
H         1.01490916       8.78254624       2.83890249         0.00000000       0.00000000       0.00000000          1
H         1.60557426      10.54007251       0.74929168         0.00000000       0.00000000       0.00000000          1
H         3.71715969       8.71277222       3.54405797         0.00000000       0.00000000       0.00000000          1
H         4.30782239      10.47030765       1.45444353         0.00000000       0.00000000       0.00000000          1
6
pbc=[F, F, F] list_num_par=6 energy=-1.26974174 iter=20000 frozen=false Lattice="15.00000000 0.00000000 0.00000000 0.00000000 15.00000000 0.00000000 0.00000000 0.00000000 15.00000000" energy_frozen_part=0.00000000 Properties=species:S:1:pos:R:3:velocities:R:3:Z:I:1
H         3.54555567       9.58422559       1.27327298         0.00000000       0.00000000       0.00000000          1
H         1.07368645       6.87905327       2.74991450         0.00000000       0.00000000       0.00000000          1
H         2.35591898       7.25302223       0.29627888         0.00000000       0.00000000       0.00000000          1
H         0.76934380       9.28755188       1.36760028         0.00000000       0.00000000       0.00000000          1
H         3.84990369       7.17573347       2.65558704         0.00000000       0.00000000       0.00000000          1
H         2.26331922       9.21026212       3.72690935         0.00000000       0.00000000       0.00000000          1
6
pbc=[F, F, F] list_num_par=6 energy=-1.26974174 iter=20000 frozen=false Lattice="15.00000000 0.00000000 0.00000000 0.00000000 15.00000000 0.00000000 0.00000000 0.00000000 15.00000000" energy_frozen_part=0.00000000 Properties=species:S:1:pos:R:3:velocities:R:3:Z:I:1
H         2.93819590       8.09177121       0.93410965         0.00000000       0.00000000       0.00000000          1
H         2.38454595      11.16110509       3.35921925         0.00000000       0.00000000       0.00000000          1
H         1.01491892       8.78252124       2.83888372         0.00000000       0.00000000       0.00000000          1
H         1.60556401      10.54007877       0.74928013         0.00000000       0.00000000       0.00000000          1
H         3.71717036       8.71279351       3.54405345         0.00000000       0.00000000       0.00000000          1
H         4.30782151      10.47035009       1.45445302         0.00000000       0.00000000       0.00000000          1
6
pbc=[F, F, F] list_num_par=6 energy=-1.26974174 iter=20000 frozen=false Lattice="15.00000000 0.00000000 0.00000000 0.00000000 15.00000000 0.00000000 0.00000000 0.00000000 15.00000000" energy_frozen_part=0.00000000 Properties=species:S:1:pos:R:3:velocities:R:3:Z:I:1
H         3.54558762       9.58417672       1.27327044         0.00000000       0.00000000       0.00000000          1
H         1.07369462       6.87903725       2.74992992         0.00000000       0.00000000       0.00000000          1
H         2.35595551       7.25296067       0.29630292         0.00000000       0.00000000       0.00000000          1
H         0.76936963       9.28751720       1.36756723         0.00000000       0.00000000       0.00000000          1
H         3.84990884       7.17570371       2.65562798         0.00000000       0.00000000       0.00000000          1
H         2.26331997       9.21026122       3.72689766         0.00000000       0.00000000       0.00000000          1
6
pbc=[F, F, F] list_num_par=6 energy=-1.26974174 iter=20000 frozen=false Lattice="15.00000000 0.00000000 0.00000000 0.00000000 15.00000000 0.00000000 0.00000000 0.00000000 15.00000000" energy_frozen_part=0.00000000 Properties=species:S:1:pos:R:3:velocities:R:3:Z:I:1
H         3.54550964       9.58421043       1.27327481         0.00000000       0.00000000       0.00000000          1
H         1.07365409       6.87903559       2.74994937         0.00000000       0.00000000       0.00000000          1
H         2.35587755       7.25299102       0.29630640         0.00000000       0.00000000       0.00000000          1
H         0.76930191       9.28752372       1.36761885         0.00000000       0.00000000       0.00000000          1
H         3.84986736       7.17571872       2.65560276         0.00000000       0.00000000       0.00000000          1
H         2.26329426       9.21025309       3.72691746         0.00000000       0.00000000       0.00000000          1
6
pbc=[F, F, F] list_num_par=6 energy=-1.26974174 iter=20000 frozen=false Lattice="15.00000000 0.00000000 0.00000000 0.00000000 15.00000000 0.00000000 0.00000000 0.00000000 15.00000000" energy_frozen_part=0.00000000 Properties=species:S:1:pos:R:3:velocities:R:3:Z:I:1
H         2.93818853       8.09175281       0.93411901         0.00000000       0.00000000       0.00000000          1
H         2.38455416      11.16110078       3.35922364         0.00000000       0.00000000       0.00000000          1
H         1.01492281       8.78252587       2.83889373         0.00000000       0.00000000       0.00000000          1
H         1.60557372      10.54006995       0.74928569         0.00000000       0.00000000       0.00000000          1
H         3.71717725       8.71278938       3.54406273         0.00000000       0.00000000       0.00000000          1
H         4.30782461      10.47032612       1.45445379         0.00000000       0.00000000       0.00000000          1
6
pbc=[F, F, F] list_num_par=6 energy=-1.26974174 iter=20000 frozen=false Lattice="15.00000000 0.00000000 0.00000000 0.00000000 15.00000000 0.00000000 0.00000000 0.00000000 15.00000000" energy_frozen_part=0.00000000 Properties=species:S:1:pos:R:3:velocities:R:3:Z:I:1
H         2.93829308       8.08034902       0.93348306         0.00000000       0.00000000       0.00000000          1
H         2.38451714      11.15779929       3.34827064         0.00000000       0.00000000       0.00000000          1
H         1.01282122       8.77929589       2.83304041         0.00000000       0.00000000       0.00000000          1
H         1.60895677      10.52969509       0.73899840         0.00000000       0.00000000       0.00000000          1
H         3.71385423       8.70844654       3.54274912         0.00000000       0.00000000       0.00000000          1
H         4.30998449      10.45884717       1.44870945         0.00000000       0.00000000       0.00000000          1
6
pbc=[F, F, F] list_num_par=6 energy=-1.26974174 iter=20000 frozen=false Lattice="15.00000000 0.00000000 0.00000000 0.00000000 15.00000000 0.00000000 0.00000000 0.00000000 15.00000000" energy_frozen_part=0.00000000 Properties=species:S:1:pos:R:3:velocities:R:3:Z:I:1
H         3.54553453       9.58422587       1.27332224         0.00000000       0.00000000       0.00000000          1
H         1.07364490       6.87903795       2.74991508         0.00000000       0.00000000       0.00000000          1
H         2.35588140       7.25304742       0.29628318         0.00000000       0.00000000       0.00000000          1
H         0.76931678       9.28756673       1.36765225         0.00000000       0.00000000       0.00000000          1
H         3.84986369       7.17569124       2.65558402         0.00000000       0.00000000       0.00000000          1
H         2.26330085       9.21021442       3.72695274         0.00000000       0.00000000       0.00000000          1
6
pbc=[F, F, F] list_num_par=6 energy=-1.26974174 iter=20000 frozen=false Lattice="15.00000000 0.00000000 0.00000000 0.00000000 15.00000000 0.00000000 0.00000000 0.00000000 15.00000000" energy_frozen_part=0.00000000 Properties=species:S:1:pos:R:3:velocities:R:3:Z:I:1
H         3.54554199       9.58419211       1.27331834         0.00000000       0.00000000       0.00000000          1
H         1.07363331       6.87902302       2.74989324         0.00000000       0.00000000       0.00000000          1
H         2.35589512       7.25300936       0.29627762         0.00000000       0.00000000       0.00000000          1
H         0.76932449       9.28754578       1.36760593         0.00000000       0.00000000       0.00000000          1
H         3.84985008       7.17568068       2.65560954         0.00000000       0.00000000       0.00000000          1
H         2.26327364       9.21021391       3.72693354         0.00000000       0.00000000       0.00000000          1
6
pbc=[F, F, F] list_num_par=6 energy=-1.26974174 iter=20000 frozen=false Lattice="15.00000000 0.00000000 0.00000000 0.00000000 15.00000000 0.00000000 0.00000000 0.00000000 15.00000000" energy_frozen_part=0.00000000 Properties=species:S:1:pos:R:3:velocities:R:3:Z:I:1
H         3.54549950       9.58425140       1.27342280         0.00000000       0.00000000       0.00000000          1
H         1.07371147       6.87890907       2.74989786         0.00000000       0.00000000       0.00000000          1
H         2.35595826       7.25305393       0.29629745         0.00000000       0.00000000       0.00000000          1
H         0.76929264       9.28747143       1.36772057         0.00000000       0.00000000       0.00000000          1
H         3.84992112       7.17569009       2.65561074         0.00000000       0.00000000       0.00000000          1
H         2.26326372       9.21010685       3.72702929         0.00000000       0.00000000       0.00000000          1
6
pbc=[F, F, F] list_num_par=6 energy=-1.26974174 iter=20000 frozen=false Lattice="15.00000000 0.00000000 0.00000000 0.00000000 15.00000000 0.00000000 0.00000000 0.00000000 15.00000000" energy_frozen_part=0.00000000 Properties=species:S:1:pos:R:3:velocities:R:3:Z:I:1
H         3.54548216       9.58425646       1.27343083         0.00000000       0.00000000       0.00000000          1
H         1.07372302       6.87889151       2.74989031         0.00000000       0.00000000       0.00000000          1
H         2.35594747       7.25306398       0.29628008         0.00000000       0.00000000       0.00000000          1
H         0.76927927       9.28746049       1.36772054         0.00000000       0.00000000       0.00000000          1
H         3.84992517       7.17568149       2.65558814         0.00000000       0.00000000       0.00000000          1
H         2.26326153       9.21008762       3.72703242         0.00000000       0.00000000       0.00000000          1
6
pbc=[F, F, F] list_num_par=6 energy=-1.26974174 iter=20000 frozen=false Lattice="15.00000000 0.00000000 0.00000000 0.00000000 15.00000000 0.00000000 0.00000000 0.00000000 15.00000000" energy_frozen_part=0.00000000 Properties=species:S:1:pos:R:3:velocities:R:3:Z:I:1
H         2.93834606       8.08030692       0.93354558         0.00000000       0.00000000       0.00000000          1
H         2.38453976      11.15780542       3.34826654         0.00000000       0.00000000       0.00000000          1