6
pbc=[F, F, F] list_num_par=6 energy=32.22811934 iter=9 frozen=false Lattice="15.00000000 0.00000000 0.00000000 0.00000000 15.00000000 0.00000000 0.00000000 0.00000000 15.00000000" energy_frozen_part=0.00000000 Properties=species:S:1:pos:R:3:velocities:R:3:Z:I:1
H         1.29096308      14.46868765       0.36393813         0.00000000       0.00000000       0.00000000          1
H         0.46871653      13.07942717       0.95121218         0.00000000       0.00000000       0.00000000          1
H         3.80947436      11.06657454       2.16404251         0.00000000       0.00000000       0.00000000          1
H         7.24110711      13.07426141      12.40613264         0.00000000       0.00000000       0.00000000          1
H         5.69501730      12.84252436       4.90327286         0.00000000       0.00000000       0.00000000          1
H         6.09290802       8.61601856       7.61264413         0.00000000       0.00000000       0.00000000          1
6
pbc=[F, F, F] list_num_par=6 energy=3.95726586 iter=19 frozen=false Lattice="15.00000000 0.00000000 0.00000000 0.00000000 15.00000000 0.00000000 0.00000000 0.00000000 15.00000000" energy_frozen_part=0.00000000 Properties=species:S:1:pos:R:3:velocities:R:3:Z:I:1
H         7.80583177      12.02987639       1.95435077         0.00000000       0.00000000       0.00000000          1
H         7.46243233       1.13779861       0.80540113         0.00000000       0.00000000       0.00000000          1
H         6.33517417       0.48470271       2.33739423         0.00000000       0.00000000       0.00000000          1
H         2.04764895      10.02321105      10.43261111         0.00000000       0.00000000       0.00000000          1
H         3.41160206      14.26270735       6.76142221         0.00000000       0.00000000       0.00000000          1
H         7.93915825      11.60205854       6.82223097         0.00000000       0.00000000       0.00000000          1
6
pbc=[F, F, F] list_num_par=6 energy=0.12103476 iter=29 frozen=false Lattice="15.00000000 0.00000000 0.00000000 0.00000000 15.00000000 0.00000000 0.00000000 0.00000000 15.00000000" energy_frozen_part=0.00000000 Properties=species:S:1:pos:R:3:velocities:R:3:Z:I:1
H         9.94537779      13.77944936       6.06145879         0.00000000       0.00000000       0.00000000          1
H        10.44972872       2.84729497      10.44234871         0.00000000       0.00000000       0.00000000          1
H         4.27308903       7.40331625       5.21311952         0.00000000       0.00000000       0.00000000          1
H        14.44401639      13.94959835       1.83640082         0.00000000       0.00000000       0.00000000          1
H         5.05684321       5.15111121       4.86914560         0.00000000       0.00000000       0.00000000          1
H         0.56890477       2.00606235       9.82179139         0.00000000       0.00000000       0.00000000          1
6
pbc=[F, F, F] list_num_par=6 energy=-0.00346232 iter=39 frozen=false Lattice="15.00000000 0.00000000 0.00000000 0.00000000 15.00000000 0.00000000 0.00000000 0.00000000 15.00000000" energy_frozen_part=0.00000000 Properties=species:S:1:pos:R:3:velocities:R:3:Z:I:1
H         1.25949580      14.79477642      14.53675893         0.00000000       0.00000000       0.00000000          1
H         3.29801210       2.88613010      11.86909329         0.00000000       0.00000000       0.00000000          1
H        11.73525513       6.41302705       3.52951763         0.00000000       0.00000000       0.00000000          1
H         9.79137428      14.84957673       7.11578358         0.00000000       0.00000000       0.00000000          1
H         8.31775517       2.98399486       8.17625803         0.00000000       0.00000000       0.00000000          1
H        12.57783821       0.51300439       0.14691411         0.00000000       0.00000000       0.00000000          1
6
pbc=[F, F, F] list_num_par=6 energy=-0.00594326 iter=49 frozen=false Lattice="15.00000000 0.00000000 0.00000000 0.00000000 15.00000000 0.00000000 0.00000000 0.00000000 15.00000000" energy_frozen_part=0.00000000 Properties=species:S:1:pos:R:3:velocities:R:3:Z:I:1
H         2.58148664       8.56519942       1.25435172         0.00000000       0.00000000       0.00000000          1
H         8.37206617       8.89875942       0.58933136         0.00000000       0.00000000       0.00000000          1
H         1.44093124       2.03913871      11.07700459         0.00000000       0.00000000       0.00000000          1
H         1.83812382       6.64633913      14.45698404         0.00000000       0.00000000       0.00000000          1
H         5.93421057      11.35204321       7.97537989         0.00000000       0.00000000       0.00000000          1
H         8.48021847       1.06789512       0.20313443         0.00000000       0.00000000       0.00000000          1
6
pbc=[F, F, F] list_num_par=6 energy=-0.00799030 iter=59 frozen=false Lattice="15.00000000 0.00000000 0.00000000 0.00000000 15.00000000 0.00000000 0.00000000 0.00000000 15.00000000" energy_frozen_part=0.00000000 Properties=species:S:1:pos:R:3:velocities:R:3:Z:I:1
H        14.38481662       7.69812287       7.48145483         0.00000000       0.00000000       0.00000000          1
H         0.50606338       7.31164243       4.39205092         0.00000000       0.00000000       0.00000000          1
H         1.07745826       3.06783772      14.90159248         0.00000000       0.00000000       0.00000000          1
H         8.91702503       4.57584101       3.08099213         0.00000000       0.00000000       0.00000000          1
H         2.42299778       8.58379639       8.65615939         0.00000000       0.00000000       0.00000000          1
H        10.74837701      13.97909246       0.03723046         0.00000000       0.00000000       0.00000000          1
6
pbc=[F, F, F] list_num_par=6 energy=-0.01034636 iter=69 frozen=false Lattice="15.00000000 0.00000000 0.00000000 0.00000000 15.00000000 0.00000000 0.00000000 0.00000000 15.00000000" energy_frozen_part=0.00000000 Properties=species:S:1:pos:R:3:velocities:R:3:Z:I:1
H        11.98780085       5.44764625      10.09192976         0.00000000       0.00000000       0.00000000          1
H         2.62856888      14.26781263       3.23384554         0.00000000       0.00000000       0.00000000          1
H         6.20072561       7.54311668       1.25633850         0.00000000       0.00000000       0.00000000          1
H         0.45378679      11.79240539      11.78360221         0.00000000       0.00000000       0.00000000          1
H         9.95470728       3.61798370       0.11482086         0.00000000       0.00000000       0.00000000          1
H         3.34530487       7.83054476      11.39937289         0.00000000       0.00000000       0.00000000          1
6
pbc=[F, F, F] list_num_par=6 energy=-0.01293362 iter=79 frozen=false Lattice="15.00000000 0.00000000 0.00000000 0.00000000 15.00000000 0.00000000 0.00000000 0.00000000 15.00000000" energy_frozen_part=0.00000000 Properties=species:S:1:pos:R:3:velocities:R:3:Z:I:1
H        13.09431742      12.10370642       1.64483631         0.00000000       0.00000000       0.00000000          1
H        12.77322651      13.92304903       7.95538550         0.00000000       0.00000000       0.00000000          1
H         3.02722461       7.71337645       3.50893521         0.00000000       0.00000000       0.00000000          1
H         5.64402927       2.77689506       7.72444349         0.00000000       0.00000000       0.00000000          1
H         1.04518877       3.57988126       2.89489080         0.00000000       0.00000000       0.00000000          1
H        11.71031251       4.63279211       1.10868570         0.00000000       0.00000000       0.00000000          1
6
pbc=[F, F, F] list_num_par=6 energy=-0.01565787 iter=89 frozen=false Lattice="15.00000000 0.00000000 0.00000000 0.00000000 15.00000000 0.00000000 0.00000000 0.00000000 15.00000000" energy_frozen_part=0.00000000 Properties=species:S:1:pos:R:3:velocities:R:3:Z:I:1
H        10.03753937       7.70583534      11.28043988         0.00000000       0.00000000       0.00000000          1
H         2.27579245       5.77496612       6.17126861         0.00000000       0.00000000       0.00000000          1
H        10.98780682       3.77723199      14.14884820         0.00000000       0.00000000       0.00000000          1
H         0.73513019      12.42664232       5.26260609         0.00000000       0.00000000       0.00000000          1
H         0.65070612       3.17888072      12.96232858         0.00000000       0.00000000       0.00000000          1
H        11.36276853       1.90210590       9.56878141         0.00000000       0.00000000       0.00000000          1
6
pbc=[F, F, F] list_num_par=6 energy=-0.01919052 iter=99 frozen=false Lattice="15.00000000 0.00000000 0.00000000 0.00000000 15.00000000 0.00000000 0.00000000 0.00000000 15.00000000" energy_frozen_part=0.00000000 Properties=species:S:1:pos:R:3:velocities:R:3:Z:I:1
H         3.36768701       5.93362663       2.35968734         0.00000000       0.00000000       0.00000000          1
H        12.10350525       5.09423956       9.65136197         0.00000000       0.00000000       0.00000000          1
H         4.08597446      14.36588386      11.45968735         0.00000000       0.00000000       0.00000000          1
H        11.64261167       8.99525847      10.98929237         0.00000000       0.00000000       0.00000000          1
H        12.24466403      10.02094682       3.88821025         0.00000000       0.00000000       0.00000000          1
H         1.88629523       0.12432237      10.95368129         0.00000000       0.00000000       0.00000000          1
6
pbc=[F, F, F] list_num_par=6 energy=-0.02162724 iter=109 frozen=false Lattice="15.00000000 0.00000000 0.00000000 0.00000000 15.00000000 0.00000000 0.00000000 0.00000000 15.00000000" energy_frozen_part=0.00000000 Properties=species:S:1:pos:R:3:velocities:R:3:Z:I:1
H         0.66326245       3.89666436       1.73131617         0.00000000       0.00000000       0.00000000          1
H         5.87116397       2.28438668       6.82625532         0.00000000       0.00000000       0.00000000          1
H        12.83145475       7.10294902      12.95567906         0.00000000       0.00000000       0.00000000          1
H         8.09168868       5.87844163      13.99019750         0.00000000       0.00000000       0.00000000          1
H         6.18165092       7.98347277      10.58184791         0.00000000       0.00000000       0.00000000          1
H         3.48195323      10.02336980       3.17254515         0.00000000       0.00000000       0.00000000          1
6
pbc=[F, F, F] list_num_par=6 energy=-0.02619676 iter=119 frozen=false Lattice="15.00000000 0.00000000 0.00000000 0.00000000 15.00000000 0.00000000 0.00000000 0.00000000 15.00000000" energy_frozen_part=0.00000000 Properties=species:S:1:pos:R:3:velocities:R:3:Z:I:1
H         4.78476530      13.88184806       9.42221684         0.00000000       0.00000000       0.00000000          1
H         7.50494493       1.17001197       6.33523335         0.00000000       0.00000000       0.00000000          1
H         5.40769478       0.89915200      10.59595808         0.00000000       0.00000000       0.00000000          1
H        10.76965560       7.35655365       8.52157235         0.00000000       0.00000000       0.00000000          1
H        13.59959295      10.32791505       5.81986729         0.00000000       0.00000000       0.00000000          1
H         1.69639309       1.34955072       7.70917973         0.00000000       0.00000000       0.00000000          1
6
pbc=[F, F, F] list_num_par=6 energy=-0.02745396 iter=129 frozen=false Lattice="15.00000000 0.00000000 0.00000000 0.00000000 15.00000000 0.00000000 0.00000000 0.00000000 15.00000000" energy_frozen_part=0.00000000 Properties=species:S:1:pos:R:3:velocities:R:3:Z:I:1
H         1.70783243       1.30779970       5.01740900         0.00000000       0.00000000       0.00000000          1
H         7.84161893       4.91689237       2.71505844         0.00000000       0.00000000       0.00000000          1
H         0.62544798      13.30178361       5.07664374         0.00000000       0.00000000       0.00000000          1
H        11.20233974      12.96258040       8.38754056         0.00000000       0.00000000       0.00000000          1
H         4.59257702       9.81773333       7.42384843         0.00000000       0.00000000       0.00000000          1
H         5.29906589       1.32061577       6.84383988         0.00000000       0.00000000       0.00000000          1
6
pbc=[F, F, F] list_num_par=6 energy=-0.02960558 iter=139 frozen=false Lattice="15.00000000 0.00000000 0.00000000 0.00000000 15.00000000 0.00000000 0.00000000 0.00000000 15.00000000" energy_frozen_part=0.00000000 Properties=species:S:1:pos:R:3:velocities:R:3:Z:I:1
H        11.23116478       7.02802923       9.69698562         0.00000000       0.00000000       0.00000000          1
H        13.77424931      10.47000160       5.71188529         0.00000000       0.00000000       0.00000000          1
H        10.30295932       1.22734736       1.47771225         0.00000000       0.00000000       0.00000000          1
H         1.74363270      14.79412301       2.61462082         0.00000000       0.00000000       0.00000000          1
H         9.56614284      11.37824177      14.03745823         0.00000000       0.00000000       0.00000000          1
H         7.02193130       3.29283789       1.87119990         0.00000000       0.00000000       0.00000000          1
6
pbc=[F, F, F] list_num_par=6 energy=-0.03420366 iter=149 frozen=false Lattice="15.00000000 0.00000000 0.00000000 0.00000000 15.00000000 0.00000000 0.00000000 0.00000000 15.00000000" energy_frozen_part=0.00000000 Properties=species:S:1:pos:R:3:velocities:R:3:Z:I:1
H        14.71414856       5.56578053      11.13510754         0.00000000       0.00000000       0.00000000          1
H         8.50773362      14.82113671       2.09662316         0.00000000       0.00000000       0.00000000          1
H         4.83131754       1.29485727       6.83350738         0.00000000       0.00000000       0.00000000          1
H         8.36571150       1.48613871       8.01961951         0.00000000       0.00000000       0.00000000          1
H         0.66741127       6.48215428       5.71163012         0.00000000       0.00000000       0.00000000          1
H         1.90559350      14.65395312       7.91209642         0.00000000       0.00000000       0.00000000          1
6
pbc=[F, F, F] list_num_par=6 energy=-0.04143667 iter=159 frozen=false Lattice="15.00000000 0.00000000 0.00000000 0.00000000 15.00000000 0.00000000 0.00000000 0.00000000 15.00000000" energy_frozen_part=0.00000000 Properties=species:S:1:pos:R:3:velocities:R:3:Z:I:1
H        13.55185773       9.77275343       1.74512001         0.00000000       0.00000000       0.00000000          1
H        11.48492102       5.56301478       5.78523121         0.00000000       0.00000000       0.00000000          1
H         6.71536319       8.28536873      12.28729063         0.00000000       0.00000000       0.00000000          1
H         3.04921488       9.80620899       7.87262804         0.00000000       0.00000000       0.00000000          1
H        11.56375601      10.89288434      10.60832140         0.00000000       0.00000000       0.00000000          1
H         5.08316551      12.09194101       5.76158072         0.00000000       0.00000000       0.00000000          1
6
pbc=[F, F, F] list_num_par=6 energy=-0.05068654 iter=169 frozen=false Lattice="15.00000000 0.00000000 0.00000000 0.00000000 15.00000000 0.00000000 0.00000000 0.00000000 15.00000000" energy_frozen_part=0.00000000 Properties=species:S:1:pos:R:3:velocities:R:3:Z:I:1
H         1.31474495       2.96282974       2.12144835         0.00000000       0.00000000       0.00000000          1
H         5.99560455       2.63974373       7.44291778         0.00000000       0.00000000       0.00000000          1
H        12.70807369       7.07414051      13.37479047         0.00000000       0.00000000       0.00000000          1
H         8.47972351       6.36235932      14.28357920         0.00000000       0.00000000       0.00000000          1
H         6.26086514       7.97673125      11.78962033         0.00000000       0.00000000       0.00000000          1
H         4.00825924       9.60159552       3.27994519         0.00000000       0.00000000       0.00000000          1
6
pbc=[F, F, F] list_num_par=6 energy=-0.05354335 iter=179 frozen=false Lattice="15.00000000 0.00000000 0.00000000 0.00000000 15.00000000 0.00000000 0.00000000 0.00000000 15.00000000" energy_frozen_part=0.00000000 Properties=species:S:1:pos:R:3:velocities:R:3:Z:I:1
H        12.00117608      12.19235219       1.18498850         0.00000000       0.00000000       0.00000000          1
H         3.37834426      13.11948013       9.29968845         0.00000000       0.00000000       0.00000000          1
H        14.52007849       5.28099162       9.64067839         0.00000000       0.00000000       0.00000000          1
H         6.61483575      14.60189581      10.09333543         0.00000000       0.00000000       0.00000000          1
H         4.77550999       2.46603432      10.09205451         0.00000000       0.00000000       0.00000000          1
H         5.08453527       3.04876100      14.25972472         0.00000000       0.00000000       0.00000000          1
6
pbc=[F, F, F] list_num_par=6 energy=-0.06204394 iter=189 frozen=false Lattice="15.00000000 0.00000000 0.00000000 0.00000000 15.00000000 0.00000000 0.00000000 0.00000000 15.00000000" energy_frozen_part=0.00000000 Properties=species:S:1:pos:R:3:velocities:R:3:Z:I:1
H         0.84848835       7.78903138       4.34359770         0.00000000       0.00000000       0.00000000          1
H         7.96418396      13.24626052      11.60834935         0.00000000       0.00000000       0.00000000          1
H        12.32239180       4.21809568       4.08012908         0.00000000       0.00000000       0.00000000          1
H         2.43957153       6.41199086       1.74398181         0.00000000       0.00000000       0.00000000          1
H         9.32310362      11.10244986       1.70682909         0.00000000       0.00000000       0.00000000          1
H        12.00583232      11.96031411       6.74903320         0.00000000       0.00000000       0.00000000          1
6
pbc=[F, F, F] list_num_par=6 energy=-0.06883405 iter=199 frozen=false Lattice="15.00000000 0.00000000 0.00000000 0.00000000 15.00000000 0.00000000 0.00000000 0.00000000 15.00000000" energy_frozen_part=0.00000000 Properties=species:S:1:pos:R:3:velocities:R:3:Z:I:1
H        11.54990269       1.50953363       7.30156372         0.00000000       0.00000000       0.00000000          1
H         6.04409421       9.68954698       6.92185637         0.00000000       0.00000000       0.00000000          1
H         1.56911808       5.81227321       1.62271826         0.00000000       0.00000000       0.00000000          1
H        12.22792091       7.60909305       9.10333305         0.00000000       0.00000000       0.00000000          1
H        11.94465758       0.69558352      13.01586677         0.00000000       0.00000000       0.00000000          1
H        11.09491036       2.97944257      13.89345396         0.00000000       0.00000000       0.00000000          1
6
pbc=[F, F, F] list_num_par=6 energy=-0.07866457 iter=209 frozen=false Lattice="15.00000000 0.00000000 0.00000000 0.00000000 15.00000000 0.00000000 0.00000000 0.00000000 15.00000000" energy_frozen_part=0.00000000 Properties=species:S:1:pos:R:3:velocities:R:3:Z:I:1
H         6.49386924      14.36304164       8.04942583         0.00000000       0.00000000       0.00000000          1
H        10.12827291       6.37974547      10.82814164         0.00000000       0.00000000       0.00000000          1
H         0.52282062       4.09230086      11.96242391         0.00000000       0.00000000       0.00000000          1
H         8.16842262       3.31952607       5.29246820         0.00000000       0.00000000       0.00000000          1
H        10.88014005       8.10078869       8.26460254         0.00000000       0.00000000       0.00000000          1
H         8.22741313      11.00560579       3.20522983         0.00000000       0.00000000       0.00000000          1
6
pbc=[F, F, F] list_num_par=6 energy=-0.08355666 iter=219 frozen=false Lattice="15.00000000 0.00000000 0.00000000 0.00000000 15.00000000 0.00000000 0.00000000 0.00000000 15.00000000" energy_frozen_part=0.00000000 Properties=species:S:1:pos:R:3:velocities:R:3:Z:I:1
H         5.94830749      13.31651348       3.12629401         0.00000000       0.00000000       0.00000000          1
H        13.76972904      10.78934709       7.66198337         0.00000000       0.00000000       0.00000000          1
H         6.74568183       2.55322291       1.00179073         0.00000000       0.00000000       0.00000000          1
H         2.27510285      14.24848414       5.91912690         0.00000000       0.00000000       0.00000000          1
H        10.21867114       8.53600726      13.89674859         0.00000000       0.00000000       0.00000000          1
H         4.84342064       1.80905139       2.64463748         0.00000000       0.00000000       0.00000000          1
6
pbc=[F, F, F] list_num_par=6 energy=-0.09048979 iter=229 frozen=false Lattice="15.00000000 0.00000000 0.00000000 0.00000000 15.00000000 0.00000000 0.00000000 0.00000000 15.00000000" energy_frozen_part=0.00000000 Properties=species:S:1:pos:R:3:velocities:R:3:Z:I:1
H         8.88920017      12.87745514       3.67366800         0.00000000       0.00000000       0.00000000          1
H        11.41281500       7.86593681       6.46313321         0.00000000       0.00000000       0.00000000          1
H         3.00753354       9.77022637      10.33312490         0.00000000       0.00000000       0.00000000          1
H         2.09703058       9.62588073       1.32196804         0.00000000       0.00000000       0.00000000          1
H         9.16768651      11.71987083       8.18660533         0.00000000       0.00000000       0.00000000          1
H         9.75046399       6.71477622       3.94947927         0.00000000       0.00000000       0.00000000          1
6
pbc=[F, F, F] list_num_par=6 energy=-0.09730432 iter=239 frozen=false Lattice="15.00000000 0.00000000 0.00000000 0.00000000 15.00000000 0.00000000 0.00000000 0.00000000 15.00000000" energy_frozen_part=0.00000000 Properties=species:S:1:pos:R:3:velocities:R:3:Z:I:1
H         9.22809503      13.58715892      11.86395873         0.00000000       0.00000000       0.00000000          1
H         9.54758602      12.18891961       0.62266011         0.00000000       0.00000000       0.00000000          1
H         5.81309094       6.07107082       3.91510399         0.00000000       0.00000000       0.00000000          1
H         0.76037817       7.76872236       7.46302525         0.00000000       0.00000000       0.00000000          1
H         6.99269364      12.16364113      12.41273342         0.00000000       0.00000000       0.00000000          1
H         5.35670186       1.23627614       0.03607994         0.00000000       0.00000000       0.00000000          1
6
pbc=[F, F, F] list_num_par=6 energy=-0.10091635 iter=249 frozen=false Lattice="15.00000000 0.00000000 0.00000000 0.00000000 15.00000000 0.00000000 0.00000000 0.00000000 15.00000000" energy_frozen_part=0.00000000 Properties=species:S:1:pos:R:3:velocities:R:3:Z:I:1
H        10.00058151       5.74890137      13.73596156         0.00000000       0.00000000       0.00000000          1
H         4.68796360       4.52474183       0.28726405         0.00000000       0.00000000       0.00000000          1
H         8.29998110       5.64422166       2.26353860         0.00000000       0.00000000       0.00000000          1
H         6.07456592       6.63472116       2.99442741         0.00000000       0.00000000       0.00000000          1
H         7.68647705      14.49509441      12.97600903         0.00000000       0.00000000       0.00000000          1
H         8.70574874       8.94639536      11.08355124         0.00000000       0.00000000       0.00000000          1
6
pbc=[F, F, F] list_num_par=6 energy=-0.10503024 iter=259 frozen=false Lattice="15.00000000 0.00000000 0.00000000 0.00000000 15.00000000 0.00000000 0.00000000 0.00000000 15.00000000" energy_frozen_part=0.00000000 Properties=species:S:1:pos:R:3:velocities:R:3:Z:I:1
H         7.93631393       8.92242266       3.23081281         0.00000000       0.00000000       0.00000000          1
H         9.18189236      12.42678582       6.17853903         0.00000000       0.00000000       0.00000000          1
H         0.67479175      13.88029636       1.32136069         0.00000000       0.00000000       0.00000000          1
H        11.85418311      13.63877219       5.28443325         0.00000000       0.00000000       0.00000000          1
H         7.30737668       1.75240853       6.18274117         0.00000000       0.00000000       0.00000000          1
H         4.61993558      13.76106263       5.53199126         0.00000000       0.00000000       0.00000000          1
6
pbc=[F, F, F] list_num_par=6 energy=-0.10757105 iter=269 frozen=false Lattice="15.00000000 0.00000000 0.00000000 0.00000000 15.00000000 0.00000000 0.00000000 0.00000000 15.00000000" energy_frozen_part=0.00000000 Properties=species:S:1:pos:R:3:velocities:R:3:Z:I:1
H        12.37413881       7.29266028       4.44478004         0.00000000       0.00000000       0.00000000          1
H        10.01157369       7.34855959       2.96939677         0.00000000       0.00000000       0.00000000          1
H         1.21089871      11.78364991      14.46296636         0.00000000       0.00000000       0.00000000          1
H         0.34147648       7.59637421       3.34266833         0.00000000       0.00000000       0.00000000          1
H        13.80792617      12.36761843       1.97204654         0.00000000       0.00000000       0.00000000          1
H         3.89313116       9.78761625      10.22984824         0.00000000       0.00000000       0.00000000          1
6
pbc=[F, F, F] list_num_par=6 energy=-0.10883879 iter=279 frozen=false Lattice="15.00000000 0.00000000 0.00000000 0.00000000 15.00000000 0.00000000 0.00000000 0.00000000 15.00000000" energy_frozen_part=0.00000000 Properties=species:S:1:pos:R:3:velocities:R:3:Z:I:1
H        11.65153561      14.33490941       0.31620354         0.00000000       0.00000000       0.00000000          1
H         1.83567327      11.27576908      10.39115627         0.00000000       0.00000000       0.00000000          1
H         2.89742394      11.33056150       5.52243019         0.00000000       0.00000000       0.00000000          1
H        14.48578732      14.12798392       0.13180307         0.00000000       0.00000000       0.00000000          1
H         9.63560418       8.61222727      10.66851787         0.00000000       0.00000000       0.00000000          1
H         1.17627501      14.47959993       1.26201800         0.00000000       0.00000000       0.00000000          1
6
pbc=[F, F, F] list_num_par=6 energy=-0.11236484 iter=289 frozen=false Lattice="15.00000000 0.00000000 0.00000000 0.00000000 15.00000000 0.00000000 0.00000000 0.00000000 15.00000000" energy_frozen_part=0.00000000 Properties=species:S:1:pos:R:3:velocities:R:3:Z:I:1
H         4.16815555       4.93577743      10.31641514         0.00000000       0.00000000       0.00000000          1
H        14.22063558      10.38928168       7.12977570         0.00000000       0.00000000       0.00000000          1
H         8.68256178       6.54078309       2.53508367         0.00000000       0.00000000       0.00000000          1
H         2.78800698       6.92287394      11.23583837         0.00000000       0.00000000       0.00000000          1
H         4.15287180       4.36383569       3.49354635         0.00000000       0.00000000       0.00000000          1
H         9.61664354       9.79725635       3.63413033         0.00000000       0.00000000       0.00000000          1
6
pbc=[F, F, F] list_num_par=6 energy=-0.11766521 iter=299 frozen=false Lattice="15.00000000 0.00000000 0.00000000 0.00000000 15.00000000 0.00000000 0.00000000 0.00000000 15.00000000" energy_frozen_part=0.00000000 Properties=species:S:1:pos:R:3:velocities:R:3:Z:I:1
H        14.06782140       5.94679319       7.13231453         0.00000000       0.00000000       0.00000000          1
H         0.85445023      12.79586388       9.32287818         0.00000000       0.00000000       0.00000000          1
H         5.30058015       1.16379630      14.37020483         0.00000000       0.00000000       0.00000000          1
H         1.51120685      12.81055222       6.48230165         0.00000000       0.00000000       0.00000000          1
H         4.94724818      10.44659952       6.10416925         0.00000000       0.00000000       0.00000000          1
H         2.49338947       2.35782365       9.21248452         0.00000000       0.00000000       0.00000000          1
6
pbc=[F, F, F] list_num_par=6 energy=-0.12133132 iter=309 frozen=false Lattice="15.00000000 0.00000000 0.00000000 0.00000000 15.00000000 0.00000000 0.00000000 0.00000000 15.00000000" energy_frozen_part=0.00000000 Properties=species:S:1:pos:R:3:velocities:R:3:Z:I:1
H         7.37385975       8.75434932      10.92977778         0.00000000       0.00000000       0.00000000          1
H         4.38364196       4.55154499      12.06521089         0.00000000       0.00000000       0.00000000          1