6
pbc=[F, F, F] list_num_par=6 energy=-1.26974174 iter=20000 frozen=false Lattice="15.00000000 0.00000000 0.00000000 0.00000000 15.00000000 0.00000000 0.00000000 0.00000000 15.00000000" energy_frozen_part=0.00000000 Properties=species:S:1:pos:R:3:velocities:R:3:Z:I:1
H         6.74197307      12.10259405      10.84336392         0.00000000       0.00000000       0.00000000          1
H         4.76640784      10.12751788      10.82094182         0.00000000       0.00000000       0.00000000          1
H         6.14740254       8.72367851      12.80245326         0.00000000       0.00000000       0.00000000          1
H         5.44612192      11.39614474      13.21527994         0.00000000       0.00000000       0.00000000          1
H         7.44325055       9.43013313      10.43053529         0.00000000       0.00000000       0.00000000          1
H         8.12297107      10.69875231      12.82487374         0.00000000       0.00000000       0.00000000          1
6
pbc=[F, F, F] list_num_par=6 energy=-1.26974174 iter=20000 frozen=false Lattice="15.00000000 0.00000000 0.00000000 0.00000000 15.00000000 0.00000000 0.00000000 0.00000000 15.00000000" energy_frozen_part=0.00000000 Properties=species:S:1:pos:R:3:velocities:R:3:Z:I:1
H         6.74275350      12.10287151      10.84322209         0.00000000       0.00000000       0.00000000          1
H         4.76699426      10.12797515      10.82208156         0.00000000       0.00000000       0.00000000          1
H         6.14854797       8.72460720      12.80353079         0.00000000       0.00000000       0.00000000          1
H         5.44765207      11.39726109      13.21580326         0.00000000       0.00000000       0.00000000          1
H         7.44364120       9.43022296      10.43095272         0.00000000       0.00000000       0.00000000          1
H         8.12430210      10.69950920      12.82467796         0.00000000       0.00000000       0.00000000          1
6
pbc=[F, F, F] list_num_par=6 energy=-1.26974174 iter=20000 frozen=false Lattice="15.00000000 0.00000000 0.00000000 0.00000000 15.00000000 0.00000000 0.00000000 0.00000000 15.00000000" energy_frozen_part=0.00000000 Properties=species:S:1:pos:R:3:velocities:R:3:Z:I:1
H         2.73017631      12.07000285      11.31338838         0.00000000       0.00000000       0.00000000          1
H         2.47340851      11.96966016      14.09336354         0.00000000       0.00000000       0.00000000          1
H         4.90542037      10.60627585      14.26877716         0.00000000       0.00000000       0.00000000          1
H         4.77270108      13.06084178      12.94145896         0.00000000       0.00000000       0.00000000          1
H         2.86289370       9.61543743      12.64070629         0.00000000       0.00000000       0.00000000          1
H         5.16218657      10.70661323      11.48879791         0.00000000       0.00000000       0.00000000          1
6
pbc=[F, F, F] list_num_par=6 energy=-1.26974174 iter=20000 frozen=false Lattice="15.00000000 0.00000000 0.00000000 0.00000000 15.00000000 0.00000000 0.00000000 0.00000000 15.00000000" energy_frozen_part=0.00000000 Properties=species:S:1:pos:R:3:velocities:R:3:Z:I:1
H         6.74276100      12.10274966      10.84345341         0.00000000       0.00000000       0.00000000          1
H         4.76697714      10.12787445      10.82212105         0.00000000       0.00000000       0.00000000          1
H         6.14853639       8.72428198      12.80341559         0.00000000       0.00000000       0.00000000          1
H         5.44768277      11.39689926      13.21597036         0.00000000       0.00000000       0.00000000          1
H         7.44361202       9.43013159      10.43089554         0.00000000       0.00000000       0.00000000          1
H         8.12431252      10.69915473      12.82474392         0.00000000       0.00000000       0.00000000          1
6
pbc=[F, F, F] list_num_par=6 energy=-1.26974174 iter=20000 frozen=false Lattice="15.00000000 0.00000000 0.00000000 0.00000000 15.00000000 0.00000000 0.00000000 0.00000000 15.00000000" energy_frozen_part=0.00000000 Properties=species:S:1:pos:R:3:velocities:R:3:Z:I:1
H         6.74278067      12.10284855      10.84321462         0.00000000       0.00000000       0.00000000          1
H         4.76700774      10.12797336      10.82206421         0.00000000       0.00000000       0.00000000          1
H         6.14853462       8.72459047      12.80351872         0.00000000       0.00000000       0.00000000          1
H         5.44766627      11.39725218      13.21578784         0.00000000       0.00000000       0.00000000          1
H         7.44364848       9.43019298      10.43094676         0.00000000       0.00000000       0.00000000          1
H         8.12431216      10.69947014      12.82467026         0.00000000       0.00000000       0.00000000          1
6
pbc=[F, F, F] list_num_par=6 energy=-1.26974174 iter=20000 frozen=false Lattice="15.00000000 0.00000000 0.00000000 0.00000000 15.00000000 0.00000000 0.00000000 0.00000000 15.00000000" energy_frozen_part=0.00000000 Properties=species:S:1:pos:R:3:velocities:R:3:Z:I:1
H         2.73022163      12.06998825      11.31338455         0.00000000       0.00000000       0.00000000          1
H         2.47340388      11.96962874      14.09335860         0.00000000       0.00000000       0.00000000          1
H         4.90538973      10.60620694      14.26881336         0.00000000       0.00000000       0.00000000          1
H         4.77272764      13.06077993      12.94150290         0.00000000       0.00000000       0.00000000          1
H         2.86287928       9.61540983      12.64069448         0.00000000       0.00000000       0.00000000          1
H         5.16220564      10.70655847      11.48884288         0.00000000       0.00000000       0.00000000          1
6
pbc=[F, F, F] list_num_par=6 energy=-1.26974174 iter=20000 frozen=false Lattice="15.00000000 0.00000000 0.00000000 0.00000000 15.00000000 0.00000000 0.00000000 0.00000000 15.00000000" energy_frozen_part=0.00000000 Properties=species:S:1:pos:R:3:velocities:R:3:Z:I:1
H         2.73018139      12.06996965      11.31339678         0.00000000       0.00000000       0.00000000          1
H         2.47338284      11.96962003      14.09337292         0.00000000       0.00000000       0.00000000          1
H         4.90538929      10.60621803      14.26880842         0.00000000       0.00000000       0.00000000          1
H         4.77269245      13.06079166      12.94149882         0.00000000       0.00000000       0.00000000          1
H         2.86287401       9.61540314      12.64070650         0.00000000       0.00000000       0.00000000          1
H         5.16218696      10.70656977      11.48883833         0.00000000       0.00000000       0.00000000          1
6
pbc=[F, F, F] list_num_par=6 energy=-1.26974174 iter=20000 frozen=false Lattice="15.00000000 0.00000000 0.00000000 0.00000000 15.00000000 0.00000000 0.00000000 0.00000000 15.00000000" energy_frozen_part=0.00000000 Properties=species:S:1:pos:R:3:velocities:R:3:Z:I:1
H         6.74278405      12.10284826      10.84320971         0.00000000       0.00000000       0.00000000          1
H         4.76700575      10.12796586      10.82206558         0.00000000       0.00000000       0.00000000          1
H         6.14854113       8.72459059      12.80352473         0.00000000       0.00000000       0.00000000          1
H         5.44767398      11.39725270      13.21578003         0.00000000       0.00000000       0.00000000          1
H         7.44364924       9.43018878      10.43094576         0.00000000       0.00000000       0.00000000          1
H         8.12431421      10.69947262      12.82466502         0.00000000       0.00000000       0.00000000          1
6
pbc=[F, F, F] list_num_par=6 energy=-1.26974174 iter=20000 frozen=false Lattice="15.00000000 0.00000000 0.00000000 0.00000000 15.00000000 0.00000000 0.00000000 0.00000000 15.00000000" energy_frozen_part=0.00000000 Properties=species:S:1:pos:R:3:velocities:R:3:Z:I:1
H         6.74272190      12.10274120      10.84345571         0.00000000       0.00000000       0.00000000          1
H         4.76697952      10.12783051      10.82211026         0.00000000       0.00000000       0.00000000          1
H         6.14854727       8.72426054      12.80340845         0.00000000       0.00000000       0.00000000          1
H         5.44763469      11.39686703      13.21596442         0.00000000       0.00000000       0.00000000          1
H         7.44362889       9.43013876      10.43090393         0.00000000       0.00000000       0.00000000          1
H         8.12428670      10.69916769      12.82476154         0.00000000       0.00000000       0.00000000          1
6
pbc=[F, F, F] list_num_par=6 energy=-1.26974174 iter=20000 frozen=false Lattice="15.00000000 0.00000000 0.00000000 0.00000000 15.00000000 0.00000000 0.00000000 0.00000000 15.00000000" energy_frozen_part=0.00000000 Properties=species:S:1:pos:R:3:velocities:R:3:Z:I:1
H         2.73017624      12.06999964      11.31340358         0.00000000       0.00000000       0.00000000          1
H         2.47338336      11.96965558      14.09338071         0.00000000       0.00000000       0.00000000          1
H         4.90537294      10.60623620      14.26881236         0.00000000       0.00000000       0.00000000          1
H         4.77269505      13.06080234      12.94149701         0.00000000       0.00000000       0.00000000          1
H         2.86285125       9.61542755      12.64072021         0.00000000       0.00000000       0.00000000          1
H         5.16216520      10.70657177      11.48883810         0.00000000       0.00000000       0.00000000          1
6
pbc=[F, F, F] list_num_par=6 energy=-1.26974174 iter=20000 frozen=false Lattice="15.00000000 0.00000000 0.00000000 0.00000000 15.00000000 0.00000000 0.00000000 0.00000000 15.00000000" energy_frozen_part=0.00000000 Properties=species:S:1:pos:R:3:velocities:R:3:Z:I:1
H         6.74275012      12.10288262      10.84322700         0.00000000       0.00000000       0.00000000          1
H         4.76699904      10.12797910      10.82206908         0.00000000       0.00000000       0.00000000          1
H         6.14853908       8.72461018      12.80353224         0.00000000       0.00000000       0.00000000          1
H         5.44764584      11.39725864      13.21579809         0.00000000       0.00000000       0.00000000          1
H         7.44364894       9.43022768      10.43095796         0.00000000       0.00000000       0.00000000          1
H         8.12429345      10.69951050      12.82468080         0.00000000       0.00000000       0.00000000          1
6
pbc=[F, F, F] list_num_par=6 energy=-1.26974174 iter=20000 frozen=false Lattice="15.00000000 0.00000000 0.00000000 0.00000000 15.00000000 0.00000000 0.00000000 0.00000000 15.00000000" energy_frozen_part=0.00000000 Properties=species:S:1:pos:R:3:velocities:R:3:Z:I:1
H         6.74213421      12.10104976      10.84055559         0.00000000       0.00000000       0.00000000          1
H         4.76675741      10.12575837      10.82055492         0.00000000       0.00000000       0.00000000          1
H         6.14748498       8.72487912      12.80433770         0.00000000       0.00000000       0.00000000          1
H         5.44587940      11.39786674      13.21321322         0.00000000       0.00000000       0.00000000          1
H         7.44374398       9.42806317      10.43167689         0.00000000       0.00000000       0.00000000          1
H         8.12286771      10.70016629      12.82433770         0.00000000       0.00000000       0.00000000          1
6
pbc=[F, F, F] list_num_par=6 energy=-1.26974174 iter=20000 frozen=false Lattice="15.00000000 0.00000000 0.00000000 0.00000000 15.00000000 0.00000000 0.00000000 0.00000000 15.00000000" energy_frozen_part=0.00000000 Properties=species:S:1:pos:R:3:velocities:R:3:Z:I:1
H         6.74275610      12.10274813      10.84345636         0.00000000       0.00000000       0.00000000          1
H         4.76697668      10.12787094      10.82212013         0.00000000       0.00000000       0.00000000          1
H         6.14853524       8.72428101      12.80341750         0.00000000       0.00000000       0.00000000          1
H         5.44766400      11.39689448      13.21596723         0.00000000       0.00000000       0.00000000          1
H         7.44361514       9.43013517      10.43090043         0.00000000       0.00000000       0.00000000          1
H         8.12430729      10.69916187      12.82475314         0.00000000       0.00000000       0.00000000          1
6
pbc=[F, F, F] list_num_par=6 energy=-1.26974174 iter=20000 frozen=false Lattice="15.00000000 0.00000000 0.00000000 0.00000000 15.00000000 0.00000000 0.00000000 0.00000000 15.00000000" energy_frozen_part=0.00000000 Properties=species:S:1:pos:R:3:velocities:R:3:Z:I:1
H         2.73018940      12.06996477      11.31339143         0.00000000       0.00000000       0.00000000          1
H         2.47339127      11.96962809      14.09336508         0.00000000       0.00000000       0.00000000          1
H         4.90538213      10.60621383      14.26882130         0.00000000       0.00000000       0.00000000          1
H         4.77270837      13.06077920      12.94149111         0.00000000       0.00000000       0.00000000          1
H         2.86286797       9.61539926      12.64071981         0.00000000       0.00000000       0.00000000          1
H         5.16218528      10.70654354      11.48884435         0.00000000       0.00000000       0.00000000          1
6
pbc=[F, F, F] list_num_par=6 energy=-1.26974174 iter=20000 frozen=false Lattice="15.00000000 0.00000000 0.00000000 0.00000000 15.00000000 0.00000000 0.00000000 0.00000000 15.00000000" energy_frozen_part=0.00000000 Properties=species:S:1:pos:R:3:velocities:R:3:Z:I:1
H         6.74200960      12.10263164      10.84335939         0.00000000       0.00000000       0.00000000          1
H         4.76643232      10.12757470      10.82096632         0.00000000       0.00000000       0.00000000          1
H         6.14740771       8.72376304      12.80251309         0.00000000       0.00000000       0.00000000          1
H         5.44614226      11.39624320      13.21528217         0.00000000       0.00000000       0.00000000          1
H         7.44327691       9.43015495      10.43058907         0.00000000       0.00000000       0.00000000          1
H         8.12298685      10.69882684      12.82490928         0.00000000       0.00000000       0.00000000          1
6
pbc=[F, F, F] list_num_par=6 energy=-1.26974174 iter=20000 frozen=false Lattice="15.00000000 0.00000000 0.00000000 0.00000000 15.00000000 0.00000000 0.00000000 0.00000000 15.00000000" energy_frozen_part=0.00000000 Properties=species:S:1:pos:R:3:velocities:R:3:Z:I:1
H         6.74211522      12.10106584      10.84053353         0.00000000       0.00000000       0.00000000          1
H         4.76673690      10.12578271      10.82055087         0.00000000       0.00000000       0.00000000          1
H         6.14747288       8.72490156      12.80432214         0.00000000       0.00000000       0.00000000          1
H         5.44586739      11.39788495      13.21320858         0.00000000       0.00000000       0.00000000          1
H         7.44372234       9.42808036      10.43165324         0.00000000       0.00000000       0.00000000          1
H         8.12285407      10.70018501      12.82431418         0.00000000       0.00000000       0.00000000          1
6
pbc=[F, F, F] list_num_par=6 energy=-1.26974174 iter=20000 frozen=false Lattice="15.00000000 0.00000000 0.00000000 0.00000000 15.00000000 0.00000000 0.00000000 0.00000000 15.00000000" energy_frozen_part=0.00000000 Properties=species:S:1:pos:R:3:velocities:R:3:Z:I:1
H         6.74275846      12.10283749      10.84318838         0.00000000       0.00000000       0.00000000          1
H         4.76700258      10.12794644      10.82205291         0.00000000       0.00000000       0.00000000          1
H         6.14854459       8.72458308      12.80351897         0.00000000       0.00000000       0.00000000          1
H         5.44765756      11.39724155      13.21576823         0.00000000       0.00000000       0.00000000          1
H         7.44364933       9.43018572      10.43094158         0.00000000       0.00000000       0.00000000          1
H         8.12430442      10.69948363      12.82465872         0.00000000       0.00000000       0.00000000          1
6
pbc=[F, F, F] list_num_par=6 energy=-1.26974174 iter=20000 frozen=false Lattice="15.00000000 0.00000000 0.00000000 0.00000000 15.00000000 0.00000000 0.00000000 0.00000000 15.00000000" energy_frozen_part=0.00000000 Properties=species:S:1:pos:R:3:velocities:R:3:Z:I:1
H         2.73012317      12.06997638      11.31344528         0.00000000       0.00000000       0.00000000          1
H         2.47337672      11.96961016      14.09343064         0.00000000       0.00000000       0.00000000          1
H         4.90537237      10.60619279      14.26882037         0.00000000       0.00000000       0.00000000          1
H         4.77266606      13.06077344      12.94152447         0.00000000       0.00000000       0.00000000          1
H         2.86282773       9.61539767      12.64074731         0.00000000       0.00000000       0.00000000          1
H         5.16212202      10.70655895      11.48884362         0.00000000       0.00000000       0.00000000          1
6
pbc=[F, F, F] list_num_par=6 energy=-1.26974174 iter=20000 frozen=false Lattice="15.00000000 0.00000000 0.00000000 0.00000000 15.00000000 0.00000000 0.00000000 0.00000000 15.00000000" energy_frozen_part=0.00000000 Properties=species:S:1:pos:R:3:velocities:R:3:Z:I:1
H         6.74195299      12.10258809      10.84331231         0.00000000       0.00000000       0.00000000          1
H         4.76636487      10.12754368      10.82095391         0.00000000       0.00000000       0.00000000          1
H         6.14735453       8.72373590      12.80248777         0.00000000       0.00000000       0.00000000          1
H         5.44610788      11.39621699      13.21525702         0.00000000       0.00000000       0.00000000          1
H         7.44319596       9.43010788      10.43054218         0.00000000       0.00000000       0.00000000          1
H         8.12294643      10.69878234      12.82484528         0.00000000       0.00000000       0.00000000          1
6
pbc=[F, F, F] list_num_par=6 energy=-1.26974174 iter=20000 frozen=false Lattice="15.00000000 0.00000000 0.00000000 0.00000000 15.00000000 0.00000000 0.00000000 0.00000000 15.00000000" energy_frozen_part=0.00000000 Properties=species:S:1:pos:R:3:velocities:R:3:Z:I:1
H         2.73014542      12.06996740      11.31343429         0.00000000       0.00000000       0.00000000          1
H         2.47337432      11.96962428      14.09341488         0.00000000       0.00000000       0.00000000          1
H         4.90536682      10.60619963      14.26881965         0.00000000       0.00000000       0.00000000          1
H         4.77268139      13.06076683      12.94151340         0.00000000       0.00000000       0.00000000          1
H         2.86282747       9.61539791      12.64074734         0.00000000       0.00000000       0.00000000          1
H         5.16213422      10.70654118      11.48884048         0.00000000       0.00000000       0.00000000          1
6
pbc=[F, F, F] list_num_par=6 energy=-1.26974174 iter=20000 frozen=false Lattice="15.00000000 0.00000000 0.00000000 0.00000000 15.00000000 0.00000000 0.00000000 0.00000000 15.00000000" energy_frozen_part=0.00000000 Properties=species:S:1:pos:R:3:velocities:R:3:Z:I:1
H         6.74214106      12.10104662      10.84054627         0.00000000       0.00000000       0.00000000          1
H         4.76675811      10.12576528      10.82054648         0.00000000       0.00000000       0.00000000          1
H         6.14748947       8.72487916      12.80432533         0.00000000       0.00000000       0.00000000          1
H         5.44587721      11.39786199      13.21320622         0.00000000       0.00000000       0.00000000          1
H         7.44374669       9.42806607      10.43165949         0.00000000       0.00000000       0.00000000          1
H         8.12286983      10.70016645      12.82432580         0.00000000       0.00000000       0.00000000          1
6
pbc=[F, F, F] list_num_par=6 energy=-1.26974174 iter=20000 frozen=false Lattice="15.00000000 0.00000000 0.00000000 0.00000000 15.00000000 0.00000000 0.00000000 0.00000000 15.00000000" energy_frozen_part=0.00000000 Properties=species:S:1:pos:R:3:velocities:R:3:Z:I:1
H         2.73016703      12.07000655      11.31339526         0.00000000       0.00000000       0.00000000          1
H         2.47337220      11.96963076      14.09336831         0.00000000       0.00000000       0.00000000          1
H         4.90533801      10.60616602      14.26879401         0.00000000       0.00000000       0.00000000          1
H         4.77270906      13.06075565      12.94150068         0.00000000       0.00000000       0.00000000          1
H         2.86280423       9.61541933      12.64067639         0.00000000       0.00000000       0.00000000          1
H         5.16213841      10.70654176      11.48881394         0.00000000       0.00000000       0.00000000          1
6
pbc=[F, F, F] list_num_par=6 energy=-1.26974174 iter=20000 frozen=false Lattice="15.00000000 0.00000000 0.00000000 0.00000000 15.00000000 0.00000000 0.00000000 0.00000000 15.00000000" energy_frozen_part=0.00000000 Properties=species:S:1:pos:R:3:velocities:R:3:Z:I:1
H         2.73014279      12.06997090      11.31344054         0.00000000       0.00000000       0.00000000          1
H         2.47339656      11.96960971      14.09342677         0.00000000       0.00000000       0.00000000          1
H         4.90538824      10.60617739      14.26881248         0.00000000       0.00000000       0.00000000          1
H         4.77269526      13.06075423      12.94150800         0.00000000       0.00000000       0.00000000          1
H         2.86283245       9.61539812      12.64074794         0.00000000       0.00000000       0.00000000          1
H         5.16213230      10.70653765      11.48882999         0.00000000       0.00000000       0.00000000          1
6
pbc=[F, F, F] list_num_par=6 energy=-1.26974174 iter=20000 frozen=false Lattice="15.00000000 0.00000000 0.00000000 0.00000000 15.00000000 0.00000000 0.00000000 0.00000000 15.00000000" energy_frozen_part=0.00000000 Properties=species:S:1:pos:R:3:velocities:R:3:Z:I:1
H         6.74213620      12.10104942      10.84056630         0.00000000       0.00000000       0.00000000          1
H         4.76675531      10.12576188      10.82056222         0.00000000       0.00000000       0.00000000          1
H         6.14749017       8.72487747      12.80433792         0.00000000       0.00000000       0.00000000          1
H         5.44587993      11.39786053      13.21322988         0.00000000       0.00000000       0.00000000          1
H         7.44374205       9.42806711      10.43167823         0.00000000       0.00000000       0.00000000          1
H         8.12287074      10.70016271      12.82433822         0.00000000       0.00000000       0.00000000          1
6
pbc=[F, F, F] list_num_par=6 energy=-1.26974174 iter=20000 frozen=false Lattice="15.00000000 0.00000000 0.00000000 0.00000000 15.00000000 0.00000000 0.00000000 0.00000000 15.00000000" energy_frozen_part=0.00000000 Properties=species:S:1:pos:R:3:velocities:R:3:Z:I:1
H         2.73015993      12.07000638      11.31341528         0.00000000       0.00000000       0.00000000          1
H         2.47337567      11.96965089      14.09339605         0.00000000       0.00000000       0.00000000          1
H         4.90537715      10.60623909      14.26881439         0.00000000       0.00000000       0.00000000          1
H         4.77268027      13.06080734      12.94150883         0.00000000       0.00000000       0.00000000          1
H         2.86285102       9.61543732      12.64072154         0.00000000       0.00000000       0.00000000          1
H         5.16215954      10.70659206      11.48883613         0.00000000       0.00000000       0.00000000          1
6
pbc=[F, F, F] list_num_par=6 energy=-1.26974174 iter=20000 frozen=false Lattice="15.00000000 0.00000000 0.00000000 0.00000000 15.00000000 0.00000000 0.00000000 0.00000000 15.00000000" energy_frozen_part=0.00000000 Properties=species:S:1:pos:R:3:velocities:R:3:Z:I:1
H         6.74275176      12.10274635      10.84345681         0.00000000       0.00000000       0.00000000          1
H         4.76697668      10.12787094      10.82212013         0.00000000       0.00000000       0.00000000          1
H         6.14853048       8.72427878      12.80341385         0.00000000       0.00000000       0.00000000          1
H         5.44766386      11.39689701      13.21597236         0.00000000       0.00000000       0.00000000          1
H         7.44361802       9.43013582      10.43090543         0.00000000       0.00000000       0.00000000          1
H         8.12429883      10.69915834      12.82475946         0.00000000       0.00000000       0.00000000          1
6
pbc=[F, F, F] list_num_par=6 energy=-1.26974174 iter=20000 frozen=false Lattice="15.00000000 0.00000000 0.00000000 0.00000000 15.00000000 0.00000000 0.00000000 0.00000000 15.00000000" energy_frozen_part=0.00000000 Properties=species:S:1:pos:R:3:velocities:R:3:Z:I:1
H         2.73016973      12.06999967      11.31337351         0.00000000       0.00000000       0.00000000          1
H         2.47340231      11.96966066      14.09335374         0.00000000       0.00000000       0.00000000          1
H         4.90541735      10.60627069      14.26877950         0.00000000       0.00000000       0.00000000          1
H         4.77269601      13.06083614      12.94145720         0.00000000       0.00000000       0.00000000          1
H         2.86289533       9.61543600      12.64069904         0.00000000       0.00000000       0.00000000          1
H         5.16218680      10.70661409      11.48880001         0.00000000       0.00000000       0.00000000          1
6
pbc=[F, F, F] list_num_par=6 energy=-1.26974174 iter=20000 frozen=false Lattice="15.00000000 0.00000000 0.00000000 0.00000000 15.00000000 0.00000000 0.00000000 0.00000000 15.00000000" energy_frozen_part=0.00000000 Properties=species:S:1:pos:R:3:velocities:R:3:Z:I:1
H         6.74277489      12.10284549      10.84319488         0.00000000       0.00000000       0.00000000          1
H         4.76700460      10.12796212      10.82205979         0.00000000       0.00000000       0.00000000          1
H         6.14854324       8.72460175      12.80352919         0.00000000       0.00000000       0.00000000          1
H         5.44767267      11.39725821      13.21577821         0.00000000       0.00000000       0.00000000          1
H         7.44364786       9.43018565      10.43094702         0.00000000       0.00000000       0.00000000          1
H         8.12431827      10.69947845      12.82466228         0.00000000       0.00000000       0.00000000          1
6
pbc=[F, F, F] list_num_par=6 energy=-1.26974174 iter=20000 frozen=false Lattice="15.00000000 0.00000000 0.00000000 0.00000000 15.00000000 0.00000000 0.00000000 0.00000000 15.00000000" energy_frozen_part=0.00000000 Properties=species:S:1:pos:R:3:velocities:R:3:Z:I:1
H         2.73019186      12.06996338      11.31339352         0.00000000       0.00000000       0.00000000          1
H         2.47339193      11.96965645      14.09336868         0.00000000       0.00000000       0.00000000          1
H         4.90538674      10.60623958      14.26883350         0.00000000       0.00000000       0.00000000          1
H         4.77270514      13.06079128      12.94148343         0.00000000       0.00000000       0.00000000          1
H         2.86287555       9.61540865      12.64074215         0.00000000       0.00000000       0.00000000          1
H         5.16218939      10.70655479      11.48885237         0.00000000       0.00000000       0.00000000          1
6
pbc=[F, F, F] list_num_par=6 energy=-1.26974174 iter=20000 frozen=false Lattice="15.00000000 0.00000000 0.00000000 0.00000000 15.00000000 0.00000000 0.00000000 0.00000000 15.00000000" energy_frozen_part=0.00000000 Properties=species:S:1:pos:R:3:velocities:R:3:Z:I:1
H         2.73017267      12.06998429      11.31338969         0.00000000       0.00000000       0.00000000          1
H         2.47337784      11.96964148      14.09336767         0.00000000       0.00000000       0.00000000          1
H         4.90538460      10.60624117      14.26881071         0.00000000       0.00000000       0.00000000          1
H         4.77268424      13.06081214      12.94149043         0.00000000       0.00000000       0.00000000          1
H         2.86286747       9.61542253      12.64071302         0.00000000       0.00000000       0.00000000          1
H         5.16217581      10.70658710      11.48883368         0.00000000       0.00000000       0.00000000          1
6
pbc=[F, F, F] list_num_par=6 energy=-1.26974174 iter=20000 frozen=false Lattice="15.00000000 0.00000000 0.00000000 0.00000000 15.00000000 0.00000000 0.00000000 0.00000000 15.00000000" energy_frozen_part=0.00000000 Properties=species:S:1:pos:R:3:velocities:R:3:Z:I:1
H         2.73019218      12.06996596      11.31339632         0.00000000       0.00000000       0.00000000          1
H         2.47339606      11.96966283      14.09337266         0.00000000       0.00000000       0.00000000          1