6
pbc=[F, F, F] list_num_par=6 frozen=false iter=9 energy=105.03001834 Lattice="15.00000000 0.00000000 0.00000000 0.00000000 15.00000000 0.00000000 0.00000000 0.00000000 15.00000000" energy_frozen_part=0.00000000 Properties=species:S:1:pos:R:3:velocities:R:3:Z:I:1
H         9.26743597       4.97036568      13.10901796         0.00000000       0.00000000       0.00000000          1
H         8.92044790       3.53192358      12.60401633         0.00000000       0.00000000       0.00000000          1
H         8.41336123       3.23170712       1.09271864         0.00000000       0.00000000       0.00000000          1
H         6.16675988      10.73898355      14.06829871         0.00000000       0.00000000       0.00000000          1
H         4.29021795       3.36905607      10.82520236         0.00000000       0.00000000       0.00000000          1
H        14.74915723      10.80046164      10.76306103         0.00000000       0.00000000       0.00000000          1
6
pbc=[F, F, F] list_num_par=6 frozen=false iter=19 energy=0.55726914 Lattice="15.00000000 0.00000000 0.00000000 0.00000000 15.00000000 0.00000000 0.00000000 0.00000000 15.00000000" energy_frozen_part=0.00000000 Properties=species:S:1:pos:R:3:velocities:R:3:Z:I:1
H         3.16400968       1.76253643      11.52265944         0.00000000       0.00000000       0.00000000          1
H         2.17789390      13.21490741       8.89579971         0.00000000       0.00000000       0.00000000          1
H         9.36180779       1.55875406       8.12530587         0.00000000       0.00000000       0.00000000          1
H         3.46389911       8.62212323       4.93763521         0.00000000       0.00000000       0.00000000          1
H         0.19764439       0.01576577      14.05124689         0.00000000       0.00000000       0.00000000          1
H        10.23334344       0.61323109       9.99209692         0.00000000       0.00000000       0.00000000          1
6
pbc=[F, F, F] list_num_par=6 frozen=false iter=29 energy=-0.00169383 Lattice="15.00000000 0.00000000 0.00000000 0.00000000 15.00000000 0.00000000 0.00000000 0.00000000 15.00000000" energy_frozen_part=0.00000000 Properties=species:S:1:pos:R:3:velocities:R:3:Z:I:1
H         9.50151987       5.87818238       6.37481518         0.00000000       0.00000000       0.00000000          1
H        11.04679681       5.95361372       4.44359102         0.00000000       0.00000000       0.00000000          1
H         0.74989180       2.67767207       5.24290139         0.00000000       0.00000000       0.00000000          1
H        10.05708660       4.71118180       0.56586493         0.00000000       0.00000000       0.00000000          1
H         8.59164826       3.00361372      10.09016267         0.00000000       0.00000000       0.00000000          1
H        11.87977417      10.94780830      11.43083464         0.00000000       0.00000000       0.00000000          1
6
pbc=[F, F, F] list_num_par=6 frozen=false iter=39 energy=-0.00421726 Lattice="15.00000000 0.00000000 0.00000000 0.00000000 15.00000000 0.00000000 0.00000000 0.00000000 15.00000000" energy_frozen_part=0.00000000 Properties=species:S:1:pos:R:3:velocities:R:3:Z:I:1
H         4.76383761       2.01942504      12.83396958         0.00000000       0.00000000       0.00000000          1
H         6.43764792      14.67500925      12.22091975         0.00000000       0.00000000       0.00000000          1
H         3.06993078      11.61796115       1.82310974         0.00000000       0.00000000       0.00000000          1
H        12.64720911       2.16977532       3.39204946         0.00000000       0.00000000       0.00000000          1
H         7.47882229      13.76753665       5.50046082         0.00000000       0.00000000       0.00000000          1
H         1.38908744      11.05280035      11.65064320         0.00000000       0.00000000       0.00000000          1
6
pbc=[F, F, F] list_num_par=6 frozen=false iter=49 energy=-0.00741118 Lattice="15.00000000 0.00000000 0.00000000 0.00000000 15.00000000 0.00000000 0.00000000 0.00000000 15.00000000" energy_frozen_part=0.00000000 Properties=species:S:1:pos:R:3:velocities:R:3:Z:I:1
H         4.88576092       6.79079458       4.14144819         0.00000000       0.00000000       0.00000000          1
H         9.11967050      10.17204451       4.79146089         0.00000000       0.00000000       0.00000000          1
H        13.72928532      14.13151543      12.93343714         0.00000000       0.00000000       0.00000000          1
H         5.77172703       3.72819911      13.01452513         0.00000000       0.00000000       0.00000000          1
H        12.08429177      12.76683577       0.54610442         0.00000000       0.00000000       0.00000000          1
H         2.25621965       9.10666423      11.76684211         0.00000000       0.00000000       0.00000000          1
6
pbc=[F, F, F] list_num_par=6 frozen=false iter=59 energy=-0.01132979 Lattice="15.00000000 0.00000000 0.00000000 0.00000000 15.00000000 0.00000000 0.00000000 0.00000000 15.00000000" energy_frozen_part=0.00000000 Properties=species:S:1:pos:R:3:velocities:R:3:Z:I:1
H        11.88179998      12.06993138       1.58607544         0.00000000       0.00000000       0.00000000          1
H         1.11718574       2.89368033       8.73080329         0.00000000       0.00000000       0.00000000          1
H         1.02530919       9.28683937      12.68407156         0.00000000       0.00000000       0.00000000          1
H         2.99003375       1.41571372      13.24206118         0.00000000       0.00000000       0.00000000          1
H         6.41321583       5.93559088      13.82280878         0.00000000       0.00000000       0.00000000          1
H         9.52655039      11.43394438      11.38395258         0.00000000       0.00000000       0.00000000          1
6
pbc=[F, F, F] list_num_par=6 frozen=false iter=69 energy=-0.01392425 Lattice="15.00000000 0.00000000 0.00000000 0.00000000 15.00000000 0.00000000 0.00000000 0.00000000 15.00000000" energy_frozen_part=0.00000000 Properties=species:S:1:pos:R:3:velocities:R:3:Z:I:1
H         8.81742077       2.91434481       8.35267186         0.00000000       0.00000000       0.00000000          1
H         6.41421171       0.98483850       3.70503868         0.00000000       0.00000000       0.00000000          1
H         2.09337993       6.54919568      10.34522625         0.00000000       0.00000000       0.00000000          1
H        14.96412150       2.76904624       6.69593824         0.00000000       0.00000000       0.00000000          1
H         0.12700687       5.44440446       0.12051830         0.00000000       0.00000000       0.00000000          1
H         1.13520117       9.42165483      13.92372593         0.00000000       0.00000000       0.00000000          1
6
pbc=[F, F, F] list_num_par=6 frozen=false iter=79 energy=-0.01845763 Lattice="15.00000000 0.00000000 0.00000000 0.00000000 15.00000000 0.00000000 0.00000000 0.00000000 15.00000000" energy_frozen_part=0.00000000 Properties=species:S:1:pos:R:3:velocities:R:3:Z:I:1
H         2.76583091       9.77694060       1.72472998         0.00000000       0.00000000       0.00000000          1
H         7.41415529      10.64168459       3.17301748         0.00000000       0.00000000       0.00000000          1
H        10.34461614       7.12106631       4.99793993         0.00000000       0.00000000       0.00000000          1
H        12.21344679       1.94445374       9.22831136         0.00000000       0.00000000       0.00000000          1
H         0.82441997       6.72711591      12.12571629         0.00000000       0.00000000       0.00000000          1
H         9.89042443       8.78609518      10.18493541         0.00000000       0.00000000       0.00000000          1
6
pbc=[F, F, F] list_num_par=6 frozen=false iter=89 energy=-0.02264037 Lattice="15.00000000 0.00000000 0.00000000 0.00000000 15.00000000 0.00000000 0.00000000 0.00000000 15.00000000" energy_frozen_part=0.00000000 Properties=species:S:1:pos:R:3:velocities:R:3:Z:I:1
H        14.18971000       5.90909610       2.11855109         0.00000000       0.00000000       0.00000000          1
H        11.66199487       8.80890027      11.60891814         0.00000000       0.00000000       0.00000000          1
H        11.07141261       0.47826358       6.31175588         0.00000000       0.00000000       0.00000000          1
H         6.06656957       4.33493798      10.93377942         0.00000000       0.00000000       0.00000000          1
H         7.39993878       8.35781986      14.20734369         0.00000000       0.00000000       0.00000000          1
H         9.35708585       6.15606110       7.36858199         0.00000000       0.00000000       0.00000000          1
6
pbc=[F, F, F] list_num_par=6 frozen=false iter=99 energy=-0.02764659 Lattice="15.00000000 0.00000000 0.00000000 0.00000000 15.00000000 0.00000000 0.00000000 0.00000000 15.00000000" energy_frozen_part=0.00000000 Properties=species:S:1:pos:R:3:velocities:R:3:Z:I:1
H         4.52069294       1.85555507       4.44745220         0.00000000       0.00000000       0.00000000          1
H         0.05092332      12.38292933       1.94454910         0.00000000       0.00000000       0.00000000          1
H        11.39238894       8.45307789      10.37994220         0.00000000       0.00000000       0.00000000          1
H         0.56482314      14.61935285       5.20550362         0.00000000       0.00000000       0.00000000          1
H         7.09479784       2.82623958       9.13569818         0.00000000       0.00000000       0.00000000          1
H         2.75103349      13.22022636      11.81786200         0.00000000       0.00000000       0.00000000          1
6
pbc=[F, F, F] list_num_par=6 frozen=false iter=109 energy=-0.03199362 Lattice="15.00000000 0.00000000 0.00000000 0.00000000 15.00000000 0.00000000 0.00000000 0.00000000 15.00000000" energy_frozen_part=0.00000000 Properties=species:S:1:pos:R:3:velocities:R:3:Z:I:1
H         4.18275269       2.51172081      13.55674910         0.00000000       0.00000000       0.00000000          1
H         2.35529831      14.35268975      13.85744295         0.00000000       0.00000000       0.00000000          1
H         9.97624336      10.55287979       5.19674518         0.00000000       0.00000000       0.00000000          1
H        12.41169810       0.21199874       3.21466339         0.00000000       0.00000000       0.00000000          1
H         5.18943961       4.51573219       8.34416476         0.00000000       0.00000000       0.00000000          1
H         8.08760825       2.02416672       9.00507531         0.00000000       0.00000000       0.00000000          1
6
pbc=[F, F, F] list_num_par=6 frozen=false iter=119 energy=-0.03747737 Lattice="15.00000000 0.00000000 0.00000000 0.00000000 15.00000000 0.00000000 0.00000000 0.00000000 15.00000000" energy_frozen_part=0.00000000 Properties=species:S:1:pos:R:3:velocities:R:3:Z:I:1
H        10.64666052      11.42256010       0.70132807         0.00000000       0.00000000       0.00000000          1
H        10.97191633       3.66598175      13.35056100         0.00000000       0.00000000       0.00000000          1
H         4.53285490      11.65891049       3.89901360         0.00000000       0.00000000       0.00000000          1
H         2.15959415      13.08146167       9.93159554         0.00000000       0.00000000       0.00000000          1
H        11.34682236       5.53371813       5.63321842         0.00000000       0.00000000       0.00000000          1
H         5.86847826      12.90891018      10.04275811         0.00000000       0.00000000       0.00000000          1
6
pbc=[F, F, F] list_num_par=6 frozen=false iter=129 energy=-0.04391224 Lattice="15.00000000 0.00000000 0.00000000 0.00000000 15.00000000 0.00000000 0.00000000 0.00000000 15.00000000" energy_frozen_part=0.00000000 Properties=species:S:1:pos:R:3:velocities:R:3:Z:I:1
H         3.15482293      14.76609222       2.35218437         0.00000000       0.00000000       0.00000000          1
H         5.88419870       7.28214397      14.35765904         0.00000000       0.00000000       0.00000000          1
H         9.86368652      11.95939738      14.74926440         0.00000000       0.00000000       0.00000000          1
H        10.61841154       2.57298551       8.73041107         0.00000000       0.00000000       0.00000000          1
H         2.39010013       6.56691574      14.31081789         0.00000000       0.00000000       0.00000000          1
H         2.95875705       0.35690310       7.65147006         0.00000000       0.00000000       0.00000000          1
6
pbc=[F, F, F] list_num_par=6 frozen=false iter=139 energy=-0.04736266 Lattice="15.00000000 0.00000000 0.00000000 0.00000000 15.00000000 0.00000000 0.00000000 0.00000000 15.00000000" energy_frozen_part=0.00000000 Properties=species:S:1:pos:R:3:velocities:R:3:Z:I:1
H        14.83558905       8.99910977       6.28914085         0.00000000       0.00000000       0.00000000          1
H         5.67448902      11.91849737      11.95152950         0.00000000       0.00000000       0.00000000          1
H        10.03446579      10.90598059       2.20498553         0.00000000       0.00000000       0.00000000          1
H         3.25985451       9.91823725       5.89879655         0.00000000       0.00000000       0.00000000          1
H         1.31516578       5.44171109       6.44122215         0.00000000       0.00000000       0.00000000          1
H         5.23809762       8.31702979      12.32745577         0.00000000       0.00000000       0.00000000          1
6
pbc=[F, F, F] list_num_par=6 frozen=false iter=149 energy=-0.05384196 Lattice="15.00000000 0.00000000 0.00000000 0.00000000 15.00000000 0.00000000 0.00000000 0.00000000 15.00000000" energy_frozen_part=0.00000000 Properties=species:S:1:pos:R:3:velocities:R:3:Z:I:1
H        13.93210064       3.97611709       1.16706308         0.00000000       0.00000000       0.00000000          1
H         9.84954063       4.67765652      12.27016329         0.00000000       0.00000000       0.00000000          1
H        12.95985676       6.66549373       4.24895923         0.00000000       0.00000000       0.00000000          1
H         7.03237128       4.88243113       1.84600817         0.00000000       0.00000000       0.00000000          1
H         6.58978691       4.59607312      13.98441783         0.00000000       0.00000000       0.00000000          1
H         0.01605888      12.13594258       2.54084891         0.00000000       0.00000000       0.00000000          1
6
pbc=[F, F, F] list_num_par=6 frozen=false iter=159 energy=-0.05946315 Lattice="15.00000000 0.00000000 0.00000000 0.00000000 15.00000000 0.00000000 0.00000000 0.00000000 15.00000000" energy_frozen_part=0.00000000 Properties=species:S:1:pos:R:3:velocities:R:3:Z:I:1
H        12.94582954      14.07534540       6.62250045         0.00000000       0.00000000       0.00000000          1
H         3.78944960       0.60754177      12.27278907         0.00000000       0.00000000       0.00000000          1
H         5.51159928       2.41705538      14.55633593         0.00000000       0.00000000       0.00000000          1
H         9.42674497       7.45077911       1.73733320         0.00000000       0.00000000       0.00000000          1
H         3.71649091      14.94942584      13.85366470         0.00000000       0.00000000       0.00000000          1
H         3.04641381      11.04878450      10.55036900         0.00000000       0.00000000       0.00000000          1
6
pbc=[F, F, F] list_num_par=6 frozen=false iter=169 energy=-0.06224952 Lattice="15.00000000 0.00000000 0.00000000 0.00000000 15.00000000 0.00000000 0.00000000 0.00000000 15.00000000" energy_frozen_part=0.00000000 Properties=species:S:1:pos:R:3:velocities:R:3:Z:I:1
H         1.33750000       7.46696493       3.79476702         0.00000000       0.00000000       0.00000000          1
H         4.79607967       9.60512386       2.80364124         0.00000000       0.00000000       0.00000000          1
H        14.41522115       2.31585354       4.82033222         0.00000000       0.00000000       0.00000000          1
H         6.99078311       6.52403265       2.81036496         0.00000000       0.00000000       0.00000000          1
H        11.35918130       1.24622634       1.61768458         0.00000000       0.00000000       0.00000000          1
H        12.58729734       1.05505691      11.49851051         0.00000000       0.00000000       0.00000000          1
6
pbc=[F, F, F] list_num_par=6 frozen=false iter=179 energy=-0.06875434 Lattice="15.00000000 0.00000000 0.00000000 0.00000000 15.00000000 0.00000000 0.00000000 0.00000000 15.00000000" energy_frozen_part=0.00000000 Properties=species:S:1:pos:R:3:velocities:R:3:Z:I:1
H        10.62573699      14.81572578       0.65603445         0.00000000       0.00000000       0.00000000          1
H        14.35132748       4.35587259       4.55474659         0.00000000       0.00000000       0.00000000          1
H         2.79122260      10.39282735       0.14900242         0.00000000       0.00000000       0.00000000          1
H        14.24168663       4.38610235       7.83581209         0.00000000       0.00000000       0.00000000          1
H         3.80761147       8.23549022      13.26282895         0.00000000       0.00000000       0.00000000          1
H         9.01236078       5.20686913       7.79886772         0.00000000       0.00000000       0.00000000          1
6
pbc=[F, F, F] list_num_par=6 frozen=false iter=189 energy=-0.07217628 Lattice="15.00000000 0.00000000 0.00000000 0.00000000 15.00000000 0.00000000 0.00000000 0.00000000 15.00000000" energy_frozen_part=0.00000000 Properties=species:S:1:pos:R:3:velocities:R:3:Z:I:1
H        13.25712791       2.52854014       7.32314492         0.00000000       0.00000000       0.00000000          1
H         4.65406488       4.97018442       2.57267557         0.00000000       0.00000000       0.00000000          1
H         6.09991960       5.61672375       5.61107108         0.00000000       0.00000000       0.00000000          1
H         6.99186692      13.32806642      12.24203693         0.00000000       0.00000000       0.00000000          1
H        11.43932658      10.43410139       3.69720153         0.00000000       0.00000000       0.00000000          1
H         7.49690582       8.85753837       1.69161048         0.00000000       0.00000000       0.00000000          1
6
pbc=[F, F, F] list_num_par=6 frozen=false iter=199 energy=-0.07851547 Lattice="15.00000000 0.00000000 0.00000000 0.00000000 15.00000000 0.00000000 0.00000000 0.00000000 15.00000000" energy_frozen_part=0.00000000 Properties=species:S:1:pos:R:3:velocities:R:3:Z:I:1
H         1.87018371       9.76295845       5.34376018         0.00000000       0.00000000       0.00000000          1
H        10.97352358       5.50436162       0.56194426         0.00000000       0.00000000       0.00000000          1
H        11.92797974       5.84800551       5.88453676         0.00000000       0.00000000       0.00000000          1
H         5.26768727       4.60143451       0.74727747         0.00000000       0.00000000       0.00000000          1
H         5.89100337       9.60694070       4.12110226         0.00000000       0.00000000       0.00000000          1
H         1.82119763       7.32839012       7.78084435         0.00000000       0.00000000       0.00000000          1
6
pbc=[F, F, F] list_num_par=6 frozen=false iter=209 energy=-0.08163903 Lattice="15.00000000 0.00000000 0.00000000 0.00000000 15.00000000 0.00000000 0.00000000 0.00000000 15.00000000" energy_frozen_part=0.00000000 Properties=species:S:1:pos:R:3:velocities:R:3:Z:I:1
H         5.18825689       4.51128487       3.90572631         0.00000000       0.00000000       0.00000000          1
H         6.33259135       6.18729238       6.33010321         0.00000000       0.00000000       0.00000000          1
H         1.43738668      12.64173717       6.76400401         0.00000000       0.00000000       0.00000000          1
H        12.93911455      10.38327524       4.24915190         0.00000000       0.00000000       0.00000000          1
H         1.87849721      12.14905583      11.60878575         0.00000000       0.00000000       0.00000000          1
H         9.42917966       2.72682046      12.68447842         0.00000000       0.00000000       0.00000000          1
6
pbc=[F, F, F] list_num_par=6 frozen=false iter=219 energy=-0.08519254 Lattice="15.00000000 0.00000000 0.00000000 0.00000000 15.00000000 0.00000000 0.00000000 0.00000000 15.00000000" energy_frozen_part=0.00000000 Properties=species:S:1:pos:R:3:velocities:R:3:Z:I:1
H         6.94055831       2.74380504       1.64773602         0.00000000       0.00000000       0.00000000          1
H         2.54919909      11.72836174      13.01401903         0.00000000       0.00000000       0.00000000          1
H         2.19019539       7.80808304       7.14743270         0.00000000       0.00000000       0.00000000          1
H         1.03722050      12.70421061      14.95167683         0.00000000       0.00000000       0.00000000          1
H         8.68505794      11.77096833      12.19909278         0.00000000       0.00000000       0.00000000          1
H         3.13865283      12.53655018       2.25032580         0.00000000       0.00000000       0.00000000          1
6
pbc=[F, F, F] list_num_par=6 frozen=false iter=229 energy=-0.09127735 Lattice="15.00000000 0.00000000 0.00000000 0.00000000 15.00000000 0.00000000 0.00000000 0.00000000 15.00000000" energy_frozen_part=0.00000000 Properties=species:S:1:pos:R:3:velocities:R:3:Z:I:1
H         8.99000399       5.11064739       5.57380189         0.00000000       0.00000000       0.00000000          1
H         0.69116984       6.72425171       7.51798587         0.00000000       0.00000000       0.00000000          1
H         9.29443474      10.24572241      14.46451122         0.00000000       0.00000000       0.00000000          1
H         4.40053160       2.31563588      10.54556837         0.00000000       0.00000000       0.00000000          1
H         8.43293445       8.53028868      12.60996013         0.00000000       0.00000000       0.00000000          1
H        11.84235787      14.53897109       9.41234146         0.00000000       0.00000000       0.00000000          1
6
pbc=[F, F, F] list_num_par=6 frozen=false iter=239 energy=-0.09609336 Lattice="15.00000000 0.00000000 0.00000000 0.00000000 15.00000000 0.00000000 0.00000000 0.00000000 15.00000000" energy_frozen_part=0.00000000 Properties=species:S:1:pos:R:3:velocities:R:3:Z:I:1
H         9.48179547      13.60985384       6.75838145         0.00000000       0.00000000       0.00000000          1
H        11.47764902       5.59054599      11.37704222         0.00000000       0.00000000       0.00000000          1
H         7.91479176       2.41283300       4.79356699         0.00000000       0.00000000       0.00000000          1
H         4.78726407       1.94385871       5.19349950         0.00000000       0.00000000       0.00000000          1
H        11.02580496       6.96141029       4.10757972         0.00000000       0.00000000       0.00000000          1
H         5.70136111       6.60210019       4.35544915         0.00000000       0.00000000       0.00000000          1
6
pbc=[F, F, F] list_num_par=6 frozen=false iter=249 energy=-0.10013019 Lattice="15.00000000 0.00000000 0.00000000 0.00000000 15.00000000 0.00000000 0.00000000 0.00000000 15.00000000" energy_frozen_part=0.00000000 Properties=species:S:1:pos:R:3:velocities:R:3:Z:I:1
H         7.74038579      13.82577959       3.17079159         0.00000000       0.00000000       0.00000000          1
H         7.66588201       6.10940605       6.48998437         0.00000000       0.00000000       0.00000000          1
H         8.90473319       6.59213657       9.16489118         0.00000000       0.00000000       0.00000000          1
H        12.75408615       0.66836342       3.27431684         0.00000000       0.00000000       0.00000000          1
H         5.26947350      11.90660054       6.95881139         0.00000000       0.00000000       0.00000000          1
H        13.29134255      12.28631647      11.99019795         0.00000000       0.00000000       0.00000000          1
6
pbc=[F, F, F] list_num_par=6 frozen=false iter=259 energy=-0.10180675 Lattice="15.00000000 0.00000000 0.00000000 0.00000000 15.00000000 0.00000000 0.00000000 0.00000000 15.00000000" energy_frozen_part=0.00000000 Properties=species:S:1:pos:R:3:velocities:R:3:Z:I:1
H         8.86342012       3.80136967      14.70750113         0.00000000       0.00000000       0.00000000          1
H        14.47856696       4.65906581      13.11522492         0.00000000       0.00000000       0.00000000          1
H         0.95405470       6.37450605       8.23453634         0.00000000       0.00000000       0.00000000          1
H        10.52787148      12.18079550       9.41082814         0.00000000       0.00000000       0.00000000          1
H        12.76992460      11.81538455       4.91193205         0.00000000       0.00000000       0.00000000          1
H         9.50678998      10.29157639       7.14622144         0.00000000       0.00000000       0.00000000          1
6
pbc=[F, F, F] list_num_par=6 frozen=false iter=269 energy=-0.10379332 Lattice="15.00000000 0.00000000 0.00000000 0.00000000 15.00000000 0.00000000 0.00000000 0.00000000 15.00000000" energy_frozen_part=0.00000000 Properties=species:S:1:pos:R:3:velocities:R:3:Z:I:1
H        13.09157157       7.49226083       4.52671502         0.00000000       0.00000000       0.00000000          1
H        11.58729850       1.56393661       9.37381941         0.00000000       0.00000000       0.00000000          1
H         6.21518804      14.58728682       7.34247598         0.00000000       0.00000000       0.00000000          1
H         0.17903601      12.28663676      13.72526913         0.00000000       0.00000000       0.00000000          1
H         8.94636307       0.42497450       9.58805538         0.00000000       0.00000000       0.00000000          1
H         3.40736391      10.11771397       9.83422481         0.00000000       0.00000000       0.00000000          1
6
pbc=[F, F, F] list_num_par=6 frozen=false iter=279 energy=-0.10582350 Lattice="15.00000000 0.00000000 0.00000000 0.00000000 15.00000000 0.00000000 0.00000000 0.00000000 15.00000000" energy_frozen_part=0.00000000 Properties=species:S:1:pos:R:3:velocities:R:3:Z:I:1
H         4.22473838      13.60966664      10.58624519         0.00000000       0.00000000       0.00000000          1
H        13.63877115       6.90786412       6.97740176         0.00000000       0.00000000       0.00000000          1
H        12.84880934       7.82807788       0.70540425         0.00000000       0.00000000       0.00000000          1
H         0.40754426       1.63343784       3.91864583         0.00000000       0.00000000       0.00000000          1
H        14.53752508       9.39941179       2.25366496         0.00000000       0.00000000       0.00000000          1
H         3.13628362       7.52509154       3.55567707         0.00000000       0.00000000       0.00000000          1
6
pbc=[F, F, F] list_num_par=6 frozen=false iter=289 energy=-0.10847385 Lattice="15.00000000 0.00000000 0.00000000 0.00000000 15.00000000 0.00000000 0.00000000 0.00000000 15.00000000" energy_frozen_part=0.00000000 Properties=species:S:1:pos:R:3:velocities:R:3:Z:I:1
H         8.12390783       0.20421624      14.39103662         0.00000000       0.00000000       0.00000000          1
H         7.94810292       9.60880849       6.89049862         0.00000000       0.00000000       0.00000000          1
H         6.17760359       3.33874671      11.03927949         0.00000000       0.00000000       0.00000000          1
H        11.87329647       3.51703349       5.16905442         0.00000000       0.00000000       0.00000000          1
H         8.82549973      10.28311639       4.31147010         0.00000000       0.00000000       0.00000000          1
H        12.14964968       6.87350936      14.15829672         0.00000000       0.00000000       0.00000000          1
6
pbc=[F, F, F] list_num_par=6 frozen=false iter=299 energy=-0.11489516 Lattice="15.00000000 0.00000000 0.00000000 0.00000000 15.00000000 0.00000000 0.00000000 0.00000000 15.00000000" energy_frozen_part=0.00000000 Properties=species:S:1:pos:R:3:velocities:R:3:Z:I:1
H         5.27855091       3.38341223      10.87813772         0.00000000       0.00000000       0.00000000          1
H         0.11439855      13.86405897       9.31486230         0.00000000       0.00000000       0.00000000          1
H         1.13517795       1.74424802      10.17613987         0.00000000       0.00000000       0.00000000          1
H        14.61054879       2.21918641      11.88109323         0.00000000       0.00000000       0.00000000          1
H        10.87112886       5.12912064       7.44282317         0.00000000       0.00000000       0.00000000          1
H         6.00259094       3.52418731      13.55913490         0.00000000       0.00000000       0.00000000          1
6
pbc=[F, F, F] list_num_par=6 frozen=false iter=309 energy=-0.11707243 Lattice="15.00000000 0.00000000 0.00000000 0.00000000 15.00000000 0.00000000 0.00000000 0.00000000 15.00000000" energy_frozen_part=0.00000000 Properties=species:S:1:pos:R:3:velocities:R:3:Z:I:1
H        10.32222520       5.66091718      13.99471477         0.00000000       0.00000000       0.00000000          1
H        10.92367310      11.52972696      11.08141835         0.00000000       0.00000000       0.00000000          1