6
pbc=[F, F, F] list_num_par=6 energy=-1.26974174 iter=20000 frozen=false Lattice="15.00000000 0.00000000 0.00000000 0.00000000 15.00000000 0.00000000 0.00000000 0.00000000 15.00000000" energy_frozen_part=0.00000000 Properties=species:S:1:pos:R:3:velocities:R:3:Z:I:1
H        12.47167648       3.63360199       8.38275705         0.00000000       0.00000000       0.00000000          1
H         8.79543503       4.04816277       6.99640486         0.00000000       0.00000000       0.00000000          1
H        10.68636249       1.99179065       6.99661215         0.00000000       0.00000000       0.00000000          1
H        11.35513262       4.50423361       5.97452356         0.00000000       0.00000000       0.00000000          1
H        10.58074527       5.68997119       8.38255573         0.00000000       0.00000000       0.00000000          1
H         9.91197882       3.17753005       9.40464560         0.00000000       0.00000000       0.00000000          1
6
pbc=[F, F, F] list_num_par=6 energy=-1.26974174 iter=20000 frozen=false Lattice="15.00000000 0.00000000 0.00000000 0.00000000 15.00000000 0.00000000 0.00000000 0.00000000 15.00000000" energy_frozen_part=0.00000000 Properties=species:S:1:pos:R:3:velocities:R:3:Z:I:1
H        12.47148144       3.63389439       8.38261843         0.00000000       0.00000000       0.00000000          1
H         8.79511094       4.04849594       6.99663742         0.00000000       0.00000000       0.00000000          1
H        10.68606430       1.99214949       6.99652857         0.00000000       0.00000000       0.00000000          1
H        11.35470309       4.50466562       5.97454368         0.00000000       0.00000000       0.00000000          1
H        10.58052274       5.69023884       8.38272785         0.00000000       0.00000000       0.00000000          1
H         9.91189136       3.17772068       9.40471339         0.00000000       0.00000000       0.00000000          1
6
pbc=[F, F, F] list_num_par=6 energy=-1.26974174 iter=20000 frozen=false Lattice="15.00000000 0.00000000 0.00000000 0.00000000 15.00000000 0.00000000 0.00000000 0.00000000 15.00000000" energy_frozen_part=0.00000000 Properties=species:S:1:pos:R:3:velocities:R:3:Z:I:1
H        12.47148018       3.63388453       8.38261841         0.00000000       0.00000000       0.00000000          1
H         8.79511288       4.04850238       6.99663449         0.00000000       0.00000000       0.00000000          1
H        10.68605823       1.99214329       6.99652599         0.00000000       0.00000000       0.00000000          1
H        11.35470435       4.50466721       5.97454677         0.00000000       0.00000000       0.00000000          1
H        10.58052914       5.69024024       8.38273192         0.00000000       0.00000000       0.00000000          1
H         9.91188664       3.17772146       9.40471207         0.00000000       0.00000000       0.00000000          1
6
pbc=[F, F, F] list_num_par=6 energy=-1.26974174 iter=20000 frozen=false Lattice="15.00000000 0.00000000 0.00000000 0.00000000 15.00000000 0.00000000 0.00000000 0.00000000 15.00000000" energy_frozen_part=0.00000000 Properties=species:S:1:pos:R:3:velocities:R:3:Z:I:1
H        12.47169426       3.63358602       8.38270609         0.00000000       0.00000000       0.00000000          1
H         8.79542304       4.04821160       6.99647339         0.00000000       0.00000000       0.00000000          1
H        10.68630000       1.99178984       6.99664669         0.00000000       0.00000000       0.00000000          1
H        11.35509593       4.50420331       5.97448999         0.00000000       0.00000000       0.00000000          1
H        10.58081612       5.69000608       8.38253079         0.00000000       0.00000000       0.00000000          1
H         9.91202783       3.17759505       9.40468779         0.00000000       0.00000000       0.00000000          1
6
pbc=[F, F, F] list_num_par=6 energy=-1.26974174 iter=20000 frozen=false Lattice="15.00000000 0.00000000 0.00000000 0.00000000 15.00000000 0.00000000 0.00000000 0.00000000 15.00000000" energy_frozen_part=0.00000000 Properties=species:S:1:pos:R:3:velocities:R:3:Z:I:1
H        12.47166964       3.63359502       8.38276715         0.00000000       0.00000000       0.00000000          1
H         8.79542603       4.04816916       6.99641547         0.00000000       0.00000000       0.00000000          1
H        10.68634757       1.99179030       6.99663352         0.00000000       0.00000000       0.00000000          1
H        11.35512600       4.50422139       5.97452337         0.00000000       0.00000000       0.00000000          1
H        10.58075023       5.68998235       8.38254964         0.00000000       0.00000000       0.00000000          1
H         9.91197301       3.17755235       9.40466010         0.00000000       0.00000000       0.00000000          1
6
pbc=[F, F, F] list_num_par=6 energy=-1.26974174 iter=20000 frozen=false Lattice="15.00000000 0.00000000 0.00000000 0.00000000 15.00000000 0.00000000 0.00000000 0.00000000 15.00000000" energy_frozen_part=0.00000000 Properties=species:S:1:pos:R:3:velocities:R:3:Z:I:1
H         1.09317534       6.37882941       3.30734951         0.00000000       0.00000000       0.00000000          1
H         3.23468830       9.62401716       2.60646278         0.00000000       0.00000000       0.00000000          1
H         0.62004599       8.82159482       2.03719000         0.00000000       0.00000000       0.00000000          1
H         2.77389145       7.22899921       1.24416996         0.00000000       0.00000000       0.00000000          1
H         1.55397333       8.77384490       4.66963975         0.00000000       0.00000000       0.00000000          1
H         3.70781463       7.18124651       3.87662118         0.00000000       0.00000000       0.00000000          1
6
pbc=[F, F, F] list_num_par=6 energy=-1.26974174 iter=20000 frozen=false Lattice="15.00000000 0.00000000 0.00000000 0.00000000 15.00000000 0.00000000 0.00000000 0.00000000 15.00000000" energy_frozen_part=0.00000000 Properties=species:S:1:pos:R:3:velocities:R:3:Z:I:1
H         1.09314548       6.37886596       3.30738619         0.00000000       0.00000000       0.00000000          1
H         3.23470933       9.62406804       2.60669857         0.00000000       0.00000000       0.00000000          1
H         0.62008348       8.82168808       2.03730517         0.00000000       0.00000000       0.00000000          1
H         2.77394126       7.22910501       1.24430185         0.00000000       0.00000000       0.00000000          1
H         1.55391779       8.77383144       4.66978104         0.00000000       0.00000000       0.00000000          1
H         3.70777124       7.18124647       3.87677793         0.00000000       0.00000000       0.00000000          1
6
pbc=[F, F, F] list_num_par=6 energy=-1.26974174 iter=20000 frozen=false Lattice="15.00000000 0.00000000 0.00000000 0.00000000 15.00000000 0.00000000 0.00000000 0.00000000 15.00000000" energy_frozen_part=0.00000000 Properties=species:S:1:pos:R:3:velocities:R:3:Z:I:1
H         1.09323837       6.37881041       3.30742061         0.00000000       0.00000000       0.00000000          1
H         3.23467194       9.62406863       2.60659867         0.00000000       0.00000000       0.00000000          1
H         0.62005348       8.82159354       2.03729706         0.00000000       0.00000000       0.00000000          1
H         2.77394536       7.22906116       1.24426755         0.00000000       0.00000000       0.00000000          1
H         1.55396792       8.77382058       4.66974867         0.00000000       0.00000000       0.00000000          1
H         3.70785453       7.18128984       3.87671868         0.00000000       0.00000000       0.00000000          1
6
pbc=[F, F, F] list_num_par=6 energy=-1.26974174 iter=20000 frozen=false Lattice="15.00000000 0.00000000 0.00000000 0.00000000 15.00000000 0.00000000 0.00000000 0.00000000 15.00000000" energy_frozen_part=0.00000000 Properties=species:S:1:pos:R:3:velocities:R:3:Z:I:1
H        12.47167621       3.63359990       8.38276391         0.00000000       0.00000000       0.00000000          1
H         8.79544265       4.04816299       6.99640342         0.00000000       0.00000000       0.00000000          1
H        10.68636647       1.99178844       6.99661623         0.00000000       0.00000000       0.00000000          1
H        11.35513663       4.50423628       5.97452361         0.00000000       0.00000000       0.00000000          1
H        10.58074580       5.68997539       8.38255661         0.00000000       0.00000000       0.00000000          1
H         9.91197882       3.17753187       9.40464721         0.00000000       0.00000000       0.00000000          1
6
pbc=[F, F, F] list_num_par=6 energy=-1.26974174 iter=20000 frozen=false Lattice="15.00000000 0.00000000 0.00000000 0.00000000 15.00000000 0.00000000 0.00000000 0.00000000 15.00000000" energy_frozen_part=0.00000000 Properties=species:S:1:pos:R:3:velocities:R:3:Z:I:1
H         1.09312313       6.37888057       3.30741737         0.00000000       0.00000000       0.00000000          1
H         3.23468407       9.62406346       2.60667434         0.00000000       0.00000000       0.00000000          1
H         0.62005586       8.82168836       2.03730673         0.00000000       0.00000000       0.00000000          1
H         2.77390383       7.22908369       1.24431608         0.00000000       0.00000000       0.00000000          1
H         1.55390055       8.77386215       4.66978272         0.00000000       0.00000000       0.00000000          1
H         3.70774965       7.18125635       3.87679072         0.00000000       0.00000000       0.00000000          1
6
pbc=[F, F, F] list_num_par=6 energy=-1.26974174 iter=20000 frozen=false Lattice="15.00000000 0.00000000 0.00000000 0.00000000 15.00000000 0.00000000 0.00000000 0.00000000 15.00000000" energy_frozen_part=0.00000000 Properties=species:S:1:pos:R:3:velocities:R:3:Z:I:1
H        12.47171848       3.63358452       8.38273926         0.00000000       0.00000000       0.00000000          1
H         8.79548649       4.04819172       6.99637695         0.00000000       0.00000000       0.00000000          1
H        10.68638909       1.99179434       6.99659333         0.00000000       0.00000000       0.00000000          1
H        11.35518697       4.50422165       5.97449720         0.00000000       0.00000000       0.00000000          1
H        10.58081179       5.68998351       8.38252411         0.00000000       0.00000000       0.00000000          1
H         9.91201504       3.17754888       9.40462143         0.00000000       0.00000000       0.00000000          1
6
pbc=[F, F, F] list_num_par=6 energy=-1.26974174 iter=20000 frozen=false Lattice="15.00000000 0.00000000 0.00000000 0.00000000 15.00000000 0.00000000 0.00000000 0.00000000 15.00000000" energy_frozen_part=0.00000000 Properties=species:S:1:pos:R:3:velocities:R:3:Z:I:1
H         1.09325344       6.37881489       3.30740651         0.00000000       0.00000000       0.00000000          1
H         3.23468107       9.62407322       2.60660952         0.00000000       0.00000000       0.00000000          1
H         0.62007012       8.82159865       2.03729221         0.00000000       0.00000000       0.00000000          1
H         2.77396097       7.22907448       1.24426767         0.00000000       0.00000000       0.00000000          1
H         1.55397241       8.77381471       4.66975177         0.00000000       0.00000000       0.00000000          1
H         3.70786684       7.18128875       3.87672393         0.00000000       0.00000000       0.00000000          1
6
pbc=[F, F, F] list_num_par=6 energy=-1.26974174 iter=20000 frozen=false Lattice="15.00000000 0.00000000 0.00000000 0.00000000 15.00000000 0.00000000 0.00000000 0.00000000 15.00000000" energy_frozen_part=0.00000000 Properties=species:S:1:pos:R:3:velocities:R:3:Z:I:1
H        12.47166730       3.63361298       8.38276906         0.00000000       0.00000000       0.00000000          1
H         8.79542978       4.04816416       6.99641610         0.00000000       0.00000000       0.00000000          1
H        10.68636291       1.99179174       6.99662569         0.00000000       0.00000000       0.00000000          1
H        11.35512028       4.50423027       5.97452591         0.00000000       0.00000000       0.00000000          1
H        10.58073595       5.68998316       8.38255774         0.00000000       0.00000000       0.00000000          1
H         9.91197959       3.17754378       9.40466020         0.00000000       0.00000000       0.00000000          1
6
pbc=[F, F, F] list_num_par=6 energy=-1.26974174 iter=20000 frozen=false Lattice="15.00000000 0.00000000 0.00000000 0.00000000 15.00000000 0.00000000 0.00000000 0.00000000 15.00000000" energy_frozen_part=0.00000000 Properties=species:S:1:pos:R:3:velocities:R:3:Z:I:1
H        12.47167925       3.63360051       8.38275132         0.00000000       0.00000000       0.00000000          1
H         8.79544021       4.04816716       6.99639730         0.00000000       0.00000000       0.00000000          1
H        10.68636329       1.99179135       6.99661260         0.00000000       0.00000000       0.00000000          1
H        11.35513348       4.50422400       5.97450991         0.00000000       0.00000000       0.00000000          1
H        10.58075361       5.68997905       8.38253656         0.00000000       0.00000000       0.00000000          1
H         9.91198304       3.17754939       9.40464337         0.00000000       0.00000000       0.00000000          1
6
pbc=[F, F, F] list_num_par=6 energy=-1.26974174 iter=20000 frozen=false Lattice="15.00000000 0.00000000 0.00000000 0.00000000 15.00000000 0.00000000 0.00000000 0.00000000 15.00000000" energy_frozen_part=0.00000000 Properties=species:S:1:pos:R:3:velocities:R:3:Z:I:1
H         1.09314783       6.37887275       3.30740098         0.00000000       0.00000000       0.00000000          1
H         3.23471362       9.62407200       2.60669457         0.00000000       0.00000000       0.00000000          1
H         0.62008527       8.82169635       2.03731226         0.00000000       0.00000000       0.00000000          1
H         2.77393825       7.22910177       1.24430662         0.00000000       0.00000000       0.00000000          1
H         1.55392231       8.77383988       4.66978681         0.00000000       0.00000000       0.00000000          1
H         3.70777484       7.18125150       3.87678623         0.00000000       0.00000000       0.00000000          1
6
pbc=[F, F, F] list_num_par=6 energy=-1.26974174 iter=20000 frozen=false Lattice="15.00000000 0.00000000 0.00000000 0.00000000 15.00000000 0.00000000 0.00000000 0.00000000 15.00000000" energy_frozen_part=0.00000000 Properties=species:S:1:pos:R:3:velocities:R:3:Z:I:1
H        12.46831818       3.63097014       8.38824362         0.00000000       0.00000000       0.00000000          1
H         8.79619473       4.05411110       6.99361526         0.00000000       0.00000000       0.00000000          1
H        10.68293508       1.99389869       6.99658927         0.00000000       0.00000000       0.00000000          1
H        11.35919730       4.50579127       5.97809530         0.00000000       0.00000000       0.00000000          1
H        10.58157567       5.69118245       8.38526304         0.00000000       0.00000000       0.00000000          1
H         9.90531676       3.17928150       9.40375890         0.00000000       0.00000000       0.00000000          1
6
pbc=[F, F, F] list_num_par=6 energy=-1.26974174 iter=20000 frozen=false Lattice="15.00000000 0.00000000 0.00000000 0.00000000 15.00000000 0.00000000 0.00000000 0.00000000 15.00000000" energy_frozen_part=0.00000000 Properties=species:S:1:pos:R:3:velocities:R:3:Z:I:1
H        12.47167619       3.63359849       8.38277204         0.00000000       0.00000000       0.00000000          1
H         8.79543964       4.04816203       6.99640237         0.00000000       0.00000000       0.00000000          1
H        10.68637099       1.99179469       6.99661419         0.00000000       0.00000000       0.00000000          1
H        11.35513656       4.50423520       5.97452655         0.00000000       0.00000000       0.00000000          1
H        10.58074593       5.68997255       8.38255913         0.00000000       0.00000000       0.00000000          1
H         9.91197718       3.17753119       9.40464779         0.00000000       0.00000000       0.00000000          1
6
pbc=[F, F, F] list_num_par=6 energy=-1.26974174 iter=20000 frozen=false Lattice="15.00000000 0.00000000 0.00000000 0.00000000 15.00000000 0.00000000 0.00000000 0.00000000 15.00000000" energy_frozen_part=0.00000000 Properties=species:S:1:pos:R:3:velocities:R:3:Z:I:1
H        12.47165684       3.63358734       8.38280310         0.00000000       0.00000000       0.00000000          1
H         8.79542462       4.04813690       6.99643342         0.00000000       0.00000000       0.00000000          1
H        10.68635358       1.99176406       6.99666291         0.00000000       0.00000000       0.00000000          1
H        11.35511965       4.50419962       5.97455618         0.00000000       0.00000000       0.00000000          1
H        10.58072384       5.68996216       8.38258091         0.00000000       0.00000000       0.00000000          1
H         9.91196100       3.17752077       9.40468258         0.00000000       0.00000000       0.00000000          1
6
pbc=[F, F, F] list_num_par=6 energy=-1.26974174 iter=20000 frozen=false Lattice="15.00000000 0.00000000 0.00000000 0.00000000 15.00000000 0.00000000 0.00000000 0.00000000 15.00000000" energy_frozen_part=0.00000000 Properties=species:S:1:pos:R:3:velocities:R:3:Z:I:1
H        12.47172210       3.63357737       8.38273099         0.00000000       0.00000000       0.00000000          1
H         8.79548884       4.04820148       6.99638841         0.00000000       0.00000000       0.00000000          1
H        10.68637635       1.99179190       6.99660521         0.00000000       0.00000000       0.00000000          1
H        11.35518851       4.50421717       5.97449395         0.00000000       0.00000000       0.00000000          1
H        10.58083808       5.68998794       8.38252451         0.00000000       0.00000000       0.00000000          1
H         9.91202204       3.17756794       9.40463212         0.00000000       0.00000000       0.00000000          1
6
pbc=[F, F, F] list_num_par=6 energy=-1.26974174 iter=20000 frozen=false Lattice="15.00000000 0.00000000 0.00000000 0.00000000 15.00000000 0.00000000 0.00000000 0.00000000 15.00000000" energy_frozen_part=0.00000000 Properties=species:S:1:pos:R:3:velocities:R:3:Z:I:1
H        12.46858619       3.63102200       8.38854063         0.00000000       0.00000000       0.00000000          1
H         8.79658955       4.05419786       6.99356002         0.00000000       0.00000000       0.00000000          1
H        10.68333360       1.99398320       6.99669222         0.00000000       0.00000000       0.00000000          1
H        11.35969585       4.50589392       5.97830002         0.00000000       0.00000000       0.00000000          1
H        10.58184399       5.69124027       8.38540743         0.00000000       0.00000000       0.00000000          1
H         9.90548121       3.17933428       9.40380274         0.00000000       0.00000000       0.00000000          1
6
pbc=[F, F, F] list_num_par=6 energy=-1.26974174 iter=20000 frozen=false Lattice="15.00000000 0.00000000 0.00000000 0.00000000 15.00000000 0.00000000 0.00000000 0.00000000 15.00000000" energy_frozen_part=0.00000000 Properties=species:S:1:pos:R:3:velocities:R:3:Z:I:1
H         1.09317691       6.37883555       3.30731362         0.00000000       0.00000000       0.00000000          1
H         3.23469601       9.62402965       2.60647244         0.00000000       0.00000000       0.00000000          1
H         0.62006229       8.82161463       2.03717438         0.00000000       0.00000000       0.00000000          1
H         2.77390557       7.22902093       1.24415748         0.00000000       0.00000000       0.00000000          1
H         1.55396578       8.77383957       4.66963104         0.00000000       0.00000000       0.00000000          1
H         3.70781052       7.18124166       3.87661219         0.00000000       0.00000000       0.00000000          1
6
pbc=[F, F, F] list_num_par=6 energy=-1.26974174 iter=20000 frozen=false Lattice="15.00000000 0.00000000 0.00000000 0.00000000 15.00000000 0.00000000 0.00000000 0.00000000 15.00000000" energy_frozen_part=0.00000000 Properties=species:S:1:pos:R:3:velocities:R:3:Z:I:1
H        12.47166649       3.63359330       8.38277991         0.00000000       0.00000000       0.00000000          1
H         8.79542092       4.04814131       6.99644584         0.00000000       0.00000000       0.00000000          1
H        10.68635778       1.99177534       6.99664229         0.00000000       0.00000000       0.00000000          1
H        11.35510759       4.50422155       5.97454945         0.00000000       0.00000000       0.00000000          1
H        10.58073369       5.68995829       8.38258543         0.00000000       0.00000000       0.00000000          1
H         9.91198391       3.17751682       9.40468111         0.00000000       0.00000000       0.00000000          1
6
pbc=[F, F, F] list_num_par=6 energy=-1.26974174 iter=20000 frozen=false Lattice="15.00000000 0.00000000 0.00000000 0.00000000 15.00000000 0.00000000 0.00000000 0.00000000 15.00000000" energy_frozen_part=0.00000000 Properties=species:S:1:pos:R:3:velocities:R:3:Z:I:1
H        12.47172230       3.63366871       8.38269314         0.00000000       0.00000000       0.00000000          1
H         8.79541053       4.04816541       6.99651131         0.00000000       0.00000000       0.00000000          1
H        10.68637604       1.99182478       6.99663769         0.00000000       0.00000000       0.00000000          1
H        11.35504987       4.50427647       5.97450563         0.00000000       0.00000000       0.00000000          1
H        10.58075513       5.69001221       8.38257659         0.00000000       0.00000000       0.00000000          1
H         9.91208340       3.17756046       9.40470039         0.00000000       0.00000000       0.00000000          1
6
pbc=[F, F, F] list_num_par=6 energy=-1.26974174 iter=20000 frozen=false Lattice="15.00000000 0.00000000 0.00000000 0.00000000 15.00000000 0.00000000 0.00000000 0.00000000 15.00000000" energy_frozen_part=0.00000000 Properties=species:S:1:pos:R:3:velocities:R:3:Z:I:1
H         1.09322394       6.37883319       3.30740456         0.00000000       0.00000000       0.00000000          1
H         3.23466538       9.62408596       2.60659451         0.00000000       0.00000000       0.00000000          1
H         0.62004924       8.82161759       2.03729077         0.00000000       0.00000000       0.00000000          1
H         2.77392589       7.22908566       1.24425163         0.00000000       0.00000000       0.00000000          1
H         1.55395644       8.77383691       4.66974704         0.00000000       0.00000000       0.00000000          1
H         3.70783972       7.18130385       3.87670655         0.00000000       0.00000000       0.00000000          1
6
pbc=[F, F, F] list_num_par=6 energy=-1.26974174 iter=20000 frozen=false Lattice="15.00000000 0.00000000 0.00000000 0.00000000 15.00000000 0.00000000 0.00000000 0.00000000 15.00000000" energy_frozen_part=0.00000000 Properties=species:S:1:pos:R:3:velocities:R:3:Z:I:1
H        12.47172664       3.63365985       8.38271196         0.00000000       0.00000000       0.00000000          1
H         8.79543310       4.04819981       6.99651315         0.00000000       0.00000000       0.00000000          1
H        10.68637329       1.99183364       6.99664259         0.00000000       0.00000000       0.00000000          1
H        11.35507964       4.50427775       5.97451676         0.00000000       0.00000000       0.00000000          1
H        10.58078936       5.69002393       8.38258252         0.00000000       0.00000000       0.00000000          1
H         9.91207988       3.17758357       9.40470788         0.00000000       0.00000000       0.00000000          1
6
pbc=[F, F, F] list_num_par=6 energy=-1.26974174 iter=20000 frozen=false Lattice="15.00000000 0.00000000 0.00000000 0.00000000 15.00000000 0.00000000 0.00000000 0.00000000 15.00000000" energy_frozen_part=0.00000000 Properties=species:S:1:pos:R:3:velocities:R:3:Z:I:1
H        12.46830805       3.63099979       8.38824931         0.00000000       0.00000000       0.00000000          1
H         8.79618380       4.05409290       6.99358923         0.00000000       0.00000000       0.00000000          1
H        10.68295191       1.99390184       6.99658995         0.00000000       0.00000000       0.00000000          1
H        11.35918853       4.50580433       5.97808785         0.00000000       0.00000000       0.00000000          1
H        10.58154041       5.69118560       8.38524821         0.00000000       0.00000000       0.00000000          1
H         9.90530260       3.17928435       9.40375025         0.00000000       0.00000000       0.00000000          1
6
pbc=[F, F, F] list_num_par=6 energy=-1.26974174 iter=20000 frozen=false Lattice="15.00000000 0.00000000 0.00000000 0.00000000 15.00000000 0.00000000 0.00000000 0.00000000 15.00000000" energy_frozen_part=0.00000000 Properties=species:S:1:pos:R:3:velocities:R:3:Z:I:1
H        12.47168384       3.63358211       8.38271383         0.00000000       0.00000000       0.00000000          1
H         8.79542620       4.04818004       6.99643171         0.00000000       0.00000000       0.00000000          1
H        10.68631523       1.99177143       6.99664040         0.00000000       0.00000000       0.00000000          1
H        11.35510309       4.50417965       5.97447877         0.00000000       0.00000000       0.00000000          1
H        10.58079447       5.68999367       8.38250913         0.00000000       0.00000000       0.00000000          1
H         9.91200424       3.17758176       9.40466672         0.00000000       0.00000000       0.00000000          1
6
pbc=[F, F, F] list_num_par=6 energy=-1.26974174 iter=20000 frozen=false Lattice="15.00000000 0.00000000 0.00000000 0.00000000 15.00000000 0.00000000 0.00000000 0.00000000 15.00000000" energy_frozen_part=0.00000000 Properties=species:S:1:pos:R:3:velocities:R:3:Z:I:1
H        12.47166243       3.63359600       8.38279605         0.00000000       0.00000000       0.00000000          1
H         8.79542009       4.04814262       6.99644391         0.00000000       0.00000000       0.00000000          1
H        10.68635428       1.99177447       6.99665080         0.00000000       0.00000000       0.00000000          1
H        11.35511154       4.50421470       5.97455285         0.00000000       0.00000000       0.00000000          1
H        10.58072403       5.68996676       8.38258424         0.00000000       0.00000000       0.00000000          1
H         9.91196645       3.17752170       9.40468181         0.00000000       0.00000000       0.00000000          1
6
pbc=[F, F, F] list_num_par=6 energy=-1.26974174 iter=20000 frozen=false Lattice="15.00000000 0.00000000 0.00000000 0.00000000 15.00000000 0.00000000 0.00000000 0.00000000 15.00000000" energy_frozen_part=0.00000000 Properties=species:S:1:pos:R:3:velocities:R:3:Z:I:1
H        12.47167359       3.63360156       8.38276753         0.00000000       0.00000000       0.00000000          1
H         8.79544265       4.04816299       6.99640342         0.00000000       0.00000000       0.00000000          1
H        10.68637074       1.99178859       6.99661344         0.00000000       0.00000000       0.00000000          1
H        11.35513663       4.50423628       5.97452361         0.00000000       0.00000000       0.00000000          1
H        10.58074086       5.68997334       8.38256030         0.00000000       0.00000000       0.00000000          1
H         9.91197718       3.17753119       9.40464779         0.00000000       0.00000000       0.00000000          1
6
pbc=[F, F, F] list_num_par=6 energy=-1.26974174 iter=20000 frozen=false Lattice="15.00000000 0.00000000 0.00000000 0.00000000 15.00000000 0.00000000 0.00000000 0.00000000 15.00000000" energy_frozen_part=0.00000000 Properties=species:S:1:pos:R:3:velocities:R:3:Z:I:1
H         1.09322488       6.37883787       3.30740298         0.00000000       0.00000000       0.00000000          1
H         3.23465741       9.62408685       2.60658961         0.00000000       0.00000000       0.00000000          1
H         0.62004488       8.82161541       2.03728123         0.00000000       0.00000000       0.00000000          1
H         2.77392938       7.22907853       1.24425343         0.00000000       0.00000000       0.00000000          1
H         1.55395551       8.77384141       4.66973933         0.00000000       0.00000000       0.00000000          1
H         3.70783963       7.18130451       3.87670725         0.00000000       0.00000000       0.00000000          1
6
pbc=[F, F, F] list_num_par=6 energy=-1.26974174 iter=20000 frozen=false Lattice="15.00000000 0.00000000 0.00000000 0.00000000 15.00000000 0.00000000 0.00000000 0.00000000 15.00000000" energy_frozen_part=0.00000000 Properties=species:S:1:pos:R:3:velocities:R:3:Z:I:1
H        12.47167286       3.63359556       8.38277537         0.00000000       0.00000000       0.00000000          1
H         8.79543981       4.04815651       6.99640703         0.00000000       0.00000000       0.00000000          1