6
pbc=[F, F, F] list_num_par=6 energy=15.24062530 iter=9 frozen=false Lattice="15.00000000 0.00000000 0.00000000 0.00000000 15.00000000 0.00000000 0.00000000 0.00000000 15.00000000" energy_frozen_part=0.00000000 Properties=species:S:1:pos:R:3:velocities:R:3:Z:I:1
H        14.29532690      11.77783055       3.42046970         0.00000000       0.00000000       0.00000000          1
H         1.46888427       5.74878952       9.28597688         0.00000000       0.00000000       0.00000000          1
H         0.01066078      10.96674959      11.69175645         0.00000000       0.00000000       0.00000000          1
H        12.65157211      12.65718335      12.88942376         0.00000000       0.00000000       0.00000000          1
H         2.84644371       6.89048681       9.62528232         0.00000000       0.00000000       0.00000000          1
H        10.38189730       2.10770502       2.93812977         0.00000000       0.00000000       0.00000000          1
6
pbc=[F, F, F] list_num_par=6 energy=1.95549667 iter=19 frozen=false Lattice="15.00000000 0.00000000 0.00000000 0.00000000 15.00000000 0.00000000 0.00000000 0.00000000 15.00000000" energy_frozen_part=0.00000000 Properties=species:S:1:pos:R:3:velocities:R:3:Z:I:1
H         6.40164657      11.10208396       8.76636819         0.00000000       0.00000000       0.00000000          1
H         9.85305588       3.68802209       8.49320951         0.00000000       0.00000000       0.00000000          1
H        11.59511859       1.96230238       3.79788127         0.00000000       0.00000000       0.00000000          1
H         0.17445538       8.15492747       6.06902538         0.00000000       0.00000000       0.00000000          1
H         0.42257247       9.09824518       4.20129937         0.00000000       0.00000000       0.00000000          1
H         6.68378251      14.64967497       9.63620313         0.00000000       0.00000000       0.00000000          1
6
pbc=[F, F, F] list_num_par=6 energy=0.12618171 iter=29 frozen=false Lattice="15.00000000 0.00000000 0.00000000 0.00000000 15.00000000 0.00000000 0.00000000 0.00000000 15.00000000" energy_frozen_part=0.00000000 Properties=species:S:1:pos:R:3:velocities:R:3:Z:I:1
H         6.38162597       4.84870558      11.41884423         0.00000000       0.00000000       0.00000000          1
H        12.96911080      12.33170604      13.22946698         0.00000000       0.00000000       0.00000000          1
H         3.61924175       2.84661428       0.89492895         0.00000000       0.00000000       0.00000000          1
H         3.73702259       1.31331844      12.99623242         0.00000000       0.00000000       0.00000000          1
H         7.30979721       3.15691970      12.83332964         0.00000000       0.00000000       0.00000000          1
H         7.22682254      12.79023801       7.76758449         0.00000000       0.00000000       0.00000000          1
6
pbc=[F, F, F] list_num_par=6 energy=-0.00655260 iter=39 frozen=false Lattice="15.00000000 0.00000000 0.00000000 0.00000000 15.00000000 0.00000000 0.00000000 0.00000000 15.00000000" energy_frozen_part=0.00000000 Properties=species:S:1:pos:R:3:velocities:R:3:Z:I:1
H         2.53298630       4.36941110      10.12536184         0.00000000       0.00000000       0.00000000          1
H         7.72700871       0.63974499       6.02871145         0.00000000       0.00000000       0.00000000          1
H         9.74475531       4.42195836       1.73324518         0.00000000       0.00000000       0.00000000          1
H         2.62190252      13.87733232       4.01361811         0.00000000       0.00000000       0.00000000          1
H        11.97397771       1.61053455      11.98775435         0.00000000       0.00000000       0.00000000          1
H         4.29840469       1.22709327      14.27042626         0.00000000       0.00000000       0.00000000          1
6
pbc=[F, F, F] list_num_par=6 energy=-0.00871225 iter=49 frozen=false Lattice="15.00000000 0.00000000 0.00000000 0.00000000 15.00000000 0.00000000 0.00000000 0.00000000 15.00000000" energy_frozen_part=0.00000000 Properties=species:S:1:pos:R:3:velocities:R:3:Z:I:1
H         5.57006539       8.03890035       8.42179227         0.00000000       0.00000000       0.00000000          1
H        12.50593376       5.81033556       2.61706850         0.00000000       0.00000000       0.00000000          1
H        14.69972296       5.04883651      12.35607184         0.00000000       0.00000000       0.00000000          1
H        12.50680202       0.29932453      14.32604410         0.00000000       0.00000000       0.00000000          1
H         0.92664651       5.47229839       9.77994887         0.00000000       0.00000000       0.00000000          1
H         7.92154876       1.92504484       2.72964711         0.00000000       0.00000000       0.00000000          1
6
pbc=[F, F, F] list_num_par=6 energy=-0.01201637 iter=59 frozen=false Lattice="15.00000000 0.00000000 0.00000000 0.00000000 15.00000000 0.00000000 0.00000000 0.00000000 15.00000000" energy_frozen_part=0.00000000 Properties=species:S:1:pos:R:3:velocities:R:3:Z:I:1
H         6.54792947      12.55042342      13.04182996         0.00000000       0.00000000       0.00000000          1
H        10.00014455       8.16774563       6.28293390         0.00000000       0.00000000       0.00000000          1
H         2.08535147       4.42469269       5.79605293         0.00000000       0.00000000       0.00000000          1
H         5.94986590      14.68178342       4.69430453         0.00000000       0.00000000       0.00000000          1
H         3.24073235       4.16851733      11.71688884         0.00000000       0.00000000       0.00000000          1
H         9.66759527       3.55395787       5.48594935         0.00000000       0.00000000       0.00000000          1
6
pbc=[F, F, F] list_num_par=6 energy=-0.01390686 iter=69 frozen=false Lattice="15.00000000 0.00000000 0.00000000 0.00000000 15.00000000 0.00000000 0.00000000 0.00000000 15.00000000" energy_frozen_part=0.00000000 Properties=species:S:1:pos:R:3:velocities:R:3:Z:I:1
H        14.38256854       9.49503486      11.56760443         0.00000000       0.00000000       0.00000000          1
H         8.15113719      10.19439091       2.85170819         0.00000000       0.00000000       0.00000000          1
H         6.95594118      11.42969830       8.58912455         0.00000000       0.00000000       0.00000000          1
H        11.25862097       5.80133111       1.75101285         0.00000000       0.00000000       0.00000000          1
H         6.52907405       3.28036191      10.74449567         0.00000000       0.00000000       0.00000000          1
H        10.55931346      10.82027946      14.27645330         0.00000000       0.00000000       0.00000000          1
6
pbc=[F, F, F] list_num_par=6 energy=-0.01776266 iter=79 frozen=false Lattice="15.00000000 0.00000000 0.00000000 0.00000000 15.00000000 0.00000000 0.00000000 0.00000000 15.00000000" energy_frozen_part=0.00000000 Properties=species:S:1:pos:R:3:velocities:R:3:Z:I:1
H        12.23807668      11.32136304       5.63462975         0.00000000       0.00000000       0.00000000          1
H         7.10171182       0.96474435      11.05322072         0.00000000       0.00000000       0.00000000          1
H        14.67305371       0.79190793      11.97506886         0.00000000       0.00000000       0.00000000          1
H         1.78947051       7.81090747      13.72170631         0.00000000       0.00000000       0.00000000          1
H         9.82912291       0.80012830       6.80030483         0.00000000       0.00000000       0.00000000          1
H         4.59356606       1.40111877       6.82241836         0.00000000       0.00000000       0.00000000          1
6
pbc=[F, F, F] list_num_par=6 energy=-0.02143705 iter=89 frozen=false Lattice="15.00000000 0.00000000 0.00000000 0.00000000 15.00000000 0.00000000 0.00000000 0.00000000 15.00000000" energy_frozen_part=0.00000000 Properties=species:S:1:pos:R:3:velocities:R:3:Z:I:1
H        13.84091087       1.00549538       1.67663943         0.00000000       0.00000000       0.00000000          1
H        12.71574795       5.67734002       2.55079482         0.00000000       0.00000000       0.00000000          1
H         9.72678900      12.78278201      11.42790452         0.00000000       0.00000000       0.00000000          1
H         9.21589846       1.66008847       4.22039681         0.00000000       0.00000000       0.00000000          1
H        13.03709136       5.97104641       7.73312283         0.00000000       0.00000000       0.00000000          1
H         6.08832272       7.08314568      12.52655688         0.00000000       0.00000000       0.00000000          1
6
pbc=[F, F, F] list_num_par=6 energy=-0.02635480 iter=99 frozen=false Lattice="15.00000000 0.00000000 0.00000000 0.00000000 15.00000000 0.00000000 0.00000000 0.00000000 15.00000000" energy_frozen_part=0.00000000 Properties=species:S:1:pos:R:3:velocities:R:3:Z:I:1
H        11.56365201       5.08520591       7.76109187         0.00000000       0.00000000       0.00000000          1
H        14.37121532      10.56253874       4.58832571         0.00000000       0.00000000       0.00000000          1
H         2.89426011       4.97508269       3.04021315         0.00000000       0.00000000       0.00000000          1
H        10.61265744       8.97398650       4.36914833         0.00000000       0.00000000       0.00000000          1
H         6.60816552       1.30621089      10.08614991         0.00000000       0.00000000       0.00000000          1
H        14.13874581      12.32721815      14.67431968         0.00000000       0.00000000       0.00000000          1
6
pbc=[F, F, F] list_num_par=6 energy=-0.02811534 iter=109 frozen=false Lattice="15.00000000 0.00000000 0.00000000 0.00000000 15.00000000 0.00000000 0.00000000 0.00000000 15.00000000" energy_frozen_part=0.00000000 Properties=species:S:1:pos:R:3:velocities:R:3:Z:I:1
H        10.58620934       2.00402581       3.74039056         0.00000000       0.00000000       0.00000000          1
H         8.98479344      12.76307133      13.94613211         0.00000000       0.00000000       0.00000000          1
H         5.79446173       0.36450892       0.79388971         0.00000000       0.00000000       0.00000000          1
H         6.64586378       5.64790082       8.53402876         0.00000000       0.00000000       0.00000000          1
H         5.93251438       0.58004780      10.77061939         0.00000000       0.00000000       0.00000000          1
H         3.81003441       3.08626365       3.10484780         0.00000000       0.00000000       0.00000000          1
6
pbc=[F, F, F] list_num_par=6 energy=-0.03245737 iter=119 frozen=false Lattice="15.00000000 0.00000000 0.00000000 0.00000000 15.00000000 0.00000000 0.00000000 0.00000000 15.00000000" energy_frozen_part=0.00000000 Properties=species:S:1:pos:R:3:velocities:R:3:Z:I:1
H         3.63641995       3.52762918      11.73691885         0.00000000       0.00000000       0.00000000          1
H         3.93391914      12.56125192       5.58446934         0.00000000       0.00000000       0.00000000          1
H        10.55262060       5.57087417       3.83871258         0.00000000       0.00000000       0.00000000          1
H         2.43812520       2.60489910       6.79397843         0.00000000       0.00000000       0.00000000          1
H        11.21109653       6.74612630      11.17672199         0.00000000       0.00000000       0.00000000          1
H         2.83675487       1.88290100       3.00317372         0.00000000       0.00000000       0.00000000          1
6
pbc=[F, F, F] list_num_par=6 energy=-0.04087601 iter=129 frozen=false Lattice="15.00000000 0.00000000 0.00000000 0.00000000 15.00000000 0.00000000 0.00000000 0.00000000 15.00000000" energy_frozen_part=0.00000000 Properties=species:S:1:pos:R:3:velocities:R:3:Z:I:1
H         7.25079836       2.98147503       1.97549417         0.00000000       0.00000000       0.00000000          1
H         8.60681890       1.12935159      11.61607615         0.00000000       0.00000000       0.00000000          1
H        11.58506745       9.05849806       6.35146541         0.00000000       0.00000000       0.00000000          1
H         9.26782669       6.03291985       6.08306755         0.00000000       0.00000000       0.00000000          1
H        11.22769368       0.56519898       3.96057837         0.00000000       0.00000000       0.00000000          1
H        10.39540256      12.04162395      13.44073718         0.00000000       0.00000000       0.00000000          1
6
pbc=[F, F, F] list_num_par=6 energy=-0.04737611 iter=139 frozen=false Lattice="15.00000000 0.00000000 0.00000000 0.00000000 15.00000000 0.00000000 0.00000000 0.00000000 15.00000000" energy_frozen_part=0.00000000 Properties=species:S:1:pos:R:3:velocities:R:3:Z:I:1
H         9.92328765       3.19791323      11.29090511         0.00000000       0.00000000       0.00000000          1
H         2.75366541       2.47813328      14.85750306         0.00000000       0.00000000       0.00000000          1
H         9.30014752      13.70059531       8.84310194         0.00000000       0.00000000       0.00000000          1
H         6.26944196       9.11299611       8.74332039         0.00000000       0.00000000       0.00000000          1
H         1.06493092       8.27241313      13.71330817         0.00000000       0.00000000       0.00000000          1
H         6.21274517       1.60262239      13.70475164         0.00000000       0.00000000       0.00000000          1
6
pbc=[F, F, F] list_num_par=6 energy=-0.05294200 iter=149 frozen=false Lattice="15.00000000 0.00000000 0.00000000 0.00000000 15.00000000 0.00000000 0.00000000 0.00000000 15.00000000" energy_frozen_part=0.00000000 Properties=species:S:1:pos:R:3:velocities:R:3:Z:I:1
H         0.07938761      14.57111534      13.12424373         0.00000000       0.00000000       0.00000000          1
H        14.57744285       0.29863902       1.99650513         0.00000000       0.00000000       0.00000000          1
H        12.10478591       7.83472362       7.51952921         0.00000000       0.00000000       0.00000000          1
H        11.59922086       0.38626119       4.87605077         0.00000000       0.00000000       0.00000000          1
H         9.01888228       9.84152051       7.14800442         0.00000000       0.00000000       0.00000000          1
H         1.94154208      12.94347091       0.49104635         0.00000000       0.00000000       0.00000000          1
6
pbc=[F, F, F] list_num_par=6 energy=-0.05720276 iter=159 frozen=false Lattice="15.00000000 0.00000000 0.00000000 0.00000000 15.00000000 0.00000000 0.00000000 0.00000000 15.00000000" energy_frozen_part=0.00000000 Properties=species:S:1:pos:R:3:velocities:R:3:Z:I:1
H         5.14976910       6.59624261      12.38605018         0.00000000       0.00000000       0.00000000          1
H         2.06334815       5.77730815      10.16828376         0.00000000       0.00000000       0.00000000          1
H        12.60337045      10.10579734       0.98165658         0.00000000       0.00000000       0.00000000          1
H        14.11651474      13.77504514       3.90343745         0.00000000       0.00000000       0.00000000          1
H         1.18774565      14.87395287       5.29395650         0.00000000       0.00000000       0.00000000          1
H         4.70336603      10.57016156      12.52869982         0.00000000       0.00000000       0.00000000          1
6
pbc=[F, F, F] list_num_par=6 energy=-0.06481759 iter=169 frozen=false Lattice="15.00000000 0.00000000 0.00000000 0.00000000 15.00000000 0.00000000 0.00000000 0.00000000 15.00000000" energy_frozen_part=0.00000000 Properties=species:S:1:pos:R:3:velocities:R:3:Z:I:1
H         3.86992333       6.76902710      12.46006393         0.00000000       0.00000000       0.00000000          1
H        13.83805820      11.77708515       9.10577988         0.00000000       0.00000000       0.00000000          1
H        12.18346622       8.79466436       7.90040480         0.00000000       0.00000000       0.00000000          1
H         2.36334715       6.54262325       1.12287508         0.00000000       0.00000000       0.00000000          1
H         3.31210248       6.28119634       5.16260179         0.00000000       0.00000000       0.00000000          1
H        12.43271025       5.34708897       4.49848564         0.00000000       0.00000000       0.00000000          1
6
pbc=[F, F, F] list_num_par=6 energy=-0.07165752 iter=179 frozen=false Lattice="15.00000000 0.00000000 0.00000000 0.00000000 15.00000000 0.00000000 0.00000000 0.00000000 15.00000000" energy_frozen_part=0.00000000 Properties=species:S:1:pos:R:3:velocities:R:3:Z:I:1
H         5.00941958       0.12014059       6.04661908         0.00000000       0.00000000       0.00000000          1
H         9.90206287      11.85003326       5.27378246         0.00000000       0.00000000       0.00000000          1
H         8.36559558       0.84449360       0.73483295         0.00000000       0.00000000       0.00000000          1
H        11.46975633      11.08782020       2.51035404         0.00000000       0.00000000       0.00000000          1
H        12.18316420       2.51309850       7.69594301         0.00000000       0.00000000       0.00000000          1
H        13.99600715       1.47676063       2.63808304         0.00000000       0.00000000       0.00000000          1
6
pbc=[F, F, F] list_num_par=6 energy=-0.07885132 iter=189 frozen=false Lattice="15.00000000 0.00000000 0.00000000 0.00000000 15.00000000 0.00000000 0.00000000 0.00000000 15.00000000" energy_frozen_part=0.00000000 Properties=species:S:1:pos:R:3:velocities:R:3:Z:I:1
H        11.49581970      12.87212545      11.48589246         0.00000000       0.00000000       0.00000000          1
H         7.79159263      13.88851176       1.90929342         0.00000000       0.00000000       0.00000000          1
H        14.79787800       6.41921141       6.70610339         0.00000000       0.00000000       0.00000000          1
H        14.78172021      13.01236041       3.63487633         0.00000000       0.00000000       0.00000000          1
H         2.73265120       3.91841023       9.81203802         0.00000000       0.00000000       0.00000000          1
H         9.87771425      14.93193213      11.72607868         0.00000000       0.00000000       0.00000000          1
6
pbc=[F, F, F] list_num_par=6 energy=-0.08374445 iter=199 frozen=false Lattice="15.00000000 0.00000000 0.00000000 0.00000000 15.00000000 0.00000000 0.00000000 0.00000000 15.00000000" energy_frozen_part=0.00000000 Properties=species:S:1:pos:R:3:velocities:R:3:Z:I:1
H         7.98729382      10.35352648      10.08127936         0.00000000       0.00000000       0.00000000          1
H        12.02388124       3.97456695      11.48840206         0.00000000       0.00000000       0.00000000          1
H         8.09249964       3.55757277       2.19060567         0.00000000       0.00000000       0.00000000          1
H        11.67338459       1.27242536      13.04106008         0.00000000       0.00000000       0.00000000          1
H         4.95330606       5.63789998      13.34737046         0.00000000       0.00000000       0.00000000          1
H         5.17868363       0.81593492       5.41019832         0.00000000       0.00000000       0.00000000          1
6
pbc=[F, F, F] list_num_par=6 energy=-0.08577759 iter=209 frozen=false Lattice="15.00000000 0.00000000 0.00000000 0.00000000 15.00000000 0.00000000 0.00000000 0.00000000 15.00000000" energy_frozen_part=0.00000000 Properties=species:S:1:pos:R:3:velocities:R:3:Z:I:1
H        12.51729005      12.57084101       3.39825677         0.00000000       0.00000000       0.00000000          1
H         2.78777134       7.75513420       3.95655854         0.00000000       0.00000000       0.00000000          1
H        12.94782683       3.92146223       9.44034253         0.00000000       0.00000000       0.00000000          1
H         1.79421647       4.70095976       5.69184726         0.00000000       0.00000000       0.00000000          1
H         2.72790306      11.89294525       6.27491127         0.00000000       0.00000000       0.00000000          1
H         6.31149631      12.35875594       5.77747206         0.00000000       0.00000000       0.00000000          1
6
pbc=[F, F, F] list_num_par=6 energy=-0.09199565 iter=219 frozen=false Lattice="15.00000000 0.00000000 0.00000000 0.00000000 15.00000000 0.00000000 0.00000000 0.00000000 15.00000000" energy_frozen_part=0.00000000 Properties=species:S:1:pos:R:3:velocities:R:3:Z:I:1
H         6.43000230       7.17900530       6.33653692         0.00000000       0.00000000       0.00000000          1
H         3.60256846      14.25147284      10.52036073         0.00000000       0.00000000       0.00000000          1
H        11.70169112       8.79343540       5.48894650         0.00000000       0.00000000       0.00000000          1
H         8.41716000       4.18874022       1.59098612         0.00000000       0.00000000       0.00000000          1
H         3.31460663      13.23294185       7.66689531         0.00000000       0.00000000       0.00000000          1
H        14.45952646       1.84946281      13.56814132         0.00000000       0.00000000       0.00000000          1
6
pbc=[F, F, F] list_num_par=6 energy=-0.09540919 iter=229 frozen=false Lattice="15.00000000 0.00000000 0.00000000 0.00000000 15.00000000 0.00000000 0.00000000 0.00000000 15.00000000" energy_frozen_part=0.00000000 Properties=species:S:1:pos:R:3:velocities:R:3:Z:I:1
H        11.55834498      13.53139460       9.18662485         0.00000000       0.00000000       0.00000000          1
H         3.41390663      12.13059723      11.56189210         0.00000000       0.00000000       0.00000000          1
H        11.05184378      11.87343779      13.91137883         0.00000000       0.00000000       0.00000000          1
H         5.46456607       6.13317855      11.99995615         0.00000000       0.00000000       0.00000000          1
H         1.75926907       3.47703045       7.00938581         0.00000000       0.00000000       0.00000000          1
H        13.02942604      10.96789206       8.43283298         0.00000000       0.00000000       0.00000000          1
6
pbc=[F, F, F] list_num_par=6 energy=-0.09794696 iter=239 frozen=false Lattice="15.00000000 0.00000000 0.00000000 0.00000000 15.00000000 0.00000000 0.00000000 0.00000000 15.00000000" energy_frozen_part=0.00000000 Properties=species:S:1:pos:R:3:velocities:R:3:Z:I:1
H        13.61387988      14.51028592       6.76776806         0.00000000       0.00000000       0.00000000          1
H        11.35571235       0.33422310      11.43680956         0.00000000       0.00000000       0.00000000          1
H        11.44526301       9.90770819       4.45794027         0.00000000       0.00000000       0.00000000          1
H         6.08837172      10.28930298      14.45111167         0.00000000       0.00000000       0.00000000          1
H         8.16265294       9.86364378       5.20107743         0.00000000       0.00000000       0.00000000          1
H        11.28711245       9.51341503       0.78673498         0.00000000       0.00000000       0.00000000          1
6
pbc=[F, F, F] list_num_par=6 energy=-0.10146593 iter=249 frozen=false Lattice="15.00000000 0.00000000 0.00000000 0.00000000 15.00000000 0.00000000 0.00000000 0.00000000 15.00000000" energy_frozen_part=0.00000000 Properties=species:S:1:pos:R:3:velocities:R:3:Z:I:1
H        14.96206434       5.98458735       7.81862080         0.00000000       0.00000000       0.00000000          1
H         0.30951568       5.21623155       0.84298211         0.00000000       0.00000000       0.00000000          1
H         1.95352354       6.48416584      12.74617078         0.00000000       0.00000000       0.00000000          1
H         6.70365604       1.12383812      11.92812042         0.00000000       0.00000000       0.00000000          1
H         2.55169169       9.20559846      12.51340775         0.00000000       0.00000000       0.00000000          1
H        13.21957306      12.37329964       9.08067603         0.00000000       0.00000000       0.00000000          1
6
pbc=[F, F, F] list_num_par=6 energy=-0.10464737 iter=259 frozen=false Lattice="15.00000000 0.00000000 0.00000000 0.00000000 15.00000000 0.00000000 0.00000000 0.00000000 15.00000000" energy_frozen_part=0.00000000 Properties=species:S:1:pos:R:3:velocities:R:3:Z:I:1
H        10.86510658       9.73892269      13.24397523         0.00000000       0.00000000       0.00000000          1
H        11.08044719      14.08519920       4.12013357         0.00000000       0.00000000       0.00000000          1
H         1.24016448       2.99327339       6.80318640         0.00000000       0.00000000       0.00000000          1
H         3.88377939      13.88123336      12.31911432         0.00000000       0.00000000       0.00000000          1
H        12.38842537      12.58566357       7.38441629         0.00000000       0.00000000       0.00000000          1
H        12.53894986      12.14965789      10.92059064         0.00000000       0.00000000       0.00000000          1
6
pbc=[F, F, F] list_num_par=6 energy=-0.10675145 iter=269 frozen=false Lattice="15.00000000 0.00000000 0.00000000 0.00000000 15.00000000 0.00000000 0.00000000 0.00000000 15.00000000" energy_frozen_part=0.00000000 Properties=species:S:1:pos:R:3:velocities:R:3:Z:I:1
H         5.17882759      10.55083077       4.63350087         0.00000000       0.00000000       0.00000000          1
H         2.70017773      10.97077757       8.96485210         0.00000000       0.00000000       0.00000000          1
H         5.45944170      11.93509125       6.74584967         0.00000000       0.00000000       0.00000000          1
H        11.04917303       1.71644261       1.86945001         0.00000000       0.00000000       0.00000000          1
H         1.30561504      13.61421225       5.91210293         0.00000000       0.00000000       0.00000000          1
H        13.28791215       1.31044566      13.70168862         0.00000000       0.00000000       0.00000000          1
6
pbc=[F, F, F] list_num_par=6 energy=-0.11027349 iter=279 frozen=false Lattice="15.00000000 0.00000000 0.00000000 0.00000000 15.00000000 0.00000000 0.00000000 0.00000000 15.00000000" energy_frozen_part=0.00000000 Properties=species:S:1:pos:R:3:velocities:R:3:Z:I:1
H         9.61183334      13.04445431      10.10957185         0.00000000       0.00000000       0.00000000          1
H        10.16025221       9.93252874       5.51564612         0.00000000       0.00000000       0.00000000          1
H         6.16122617       3.28198357      14.00751694         0.00000000       0.00000000       0.00000000          1
H         4.85847922      12.26973512      14.42757521         0.00000000       0.00000000       0.00000000          1
H         9.55215023       8.56836430       7.94685339         0.00000000       0.00000000       0.00000000          1
H         1.51096049      14.58636076       7.29137779         0.00000000       0.00000000       0.00000000          1
6
pbc=[F, F, F] list_num_par=6 energy=-0.11278971 iter=289 frozen=false Lattice="15.00000000 0.00000000 0.00000000 0.00000000 15.00000000 0.00000000 0.00000000 0.00000000 15.00000000" energy_frozen_part=0.00000000 Properties=species:S:1:pos:R:3:velocities:R:3:Z:I:1
H         8.35505192       4.55693436       0.43560485         0.00000000       0.00000000       0.00000000          1
H         1.41667573       5.86301700       1.71846329         0.00000000       0.00000000       0.00000000          1
H         8.95692976       3.51105679       3.82487323         0.00000000       0.00000000       0.00000000          1
H        10.06903513      11.71150886       9.15892753         0.00000000       0.00000000       0.00000000          1
H         0.88950581       1.06933904       2.20223093         0.00000000       0.00000000       0.00000000          1
H        12.84613051      13.36247709       9.61590534         0.00000000       0.00000000       0.00000000          1
6
pbc=[F, F, F] list_num_par=6 energy=-0.11682363 iter=299 frozen=false Lattice="15.00000000 0.00000000 0.00000000 0.00000000 15.00000000 0.00000000 0.00000000 0.00000000 15.00000000" energy_frozen_part=0.00000000 Properties=species:S:1:pos:R:3:velocities:R:3:Z:I:1
H         9.49959678       0.61350783       3.71266460         0.00000000       0.00000000       0.00000000          1
H         7.46293173       0.46602506      10.33594358         0.00000000       0.00000000       0.00000000          1
H         6.96690662       8.63964199       5.49050182         0.00000000       0.00000000       0.00000000          1
H         5.49525770       7.34176775       0.83295007         0.00000000       0.00000000       0.00000000          1
H        11.79759517       2.03193765       2.86834631         0.00000000       0.00000000       0.00000000          1
H         6.89204236      12.15843600       8.46586957         0.00000000       0.00000000       0.00000000          1
6
pbc=[F, F, F] list_num_par=6 energy=-0.12171871 iter=309 frozen=false Lattice="15.00000000 0.00000000 0.00000000 0.00000000 15.00000000 0.00000000 0.00000000 0.00000000 15.00000000" energy_frozen_part=0.00000000 Properties=species:S:1:pos:R:3:velocities:R:3:Z:I:1
H        14.34343570       4.48380379       1.28575155         0.00000000       0.00000000       0.00000000          1
H         6.54592155       5.20167921       2.01552465         0.00000000       0.00000000       0.00000000          1