6
pbc=[F, F, F] list_num_par=6 frozen=false iter=9 energy=25.75421299 Lattice="15.00000000 0.00000000 0.00000000 0.00000000 15.00000000 0.00000000 0.00000000 0.00000000 15.00000000" energy_frozen_part=0.00000000 Properties=species:S:1:pos:R:3:velocities:R:3:Z:I:1
H        10.64099215      10.11537988       3.25345818         0.00000000       0.00000000       0.00000000          1
H         2.05417938       6.09952332       1.98598273         0.00000000       0.00000000       0.00000000          1
H         4.95491522      11.03487351       2.05418045         0.00000000       0.00000000       0.00000000          1
H         2.11893304      13.16752579       3.41177435         0.00000000       0.00000000       0.00000000          1
H        10.32243519       7.09997321       4.68981831         0.00000000       0.00000000       0.00000000          1
H        11.44922962      10.93356019       4.56986569         0.00000000       0.00000000       0.00000000          1
6
pbc=[F, F, F] list_num_par=6 frozen=false iter=19 energy=0.49062237 Lattice="15.00000000 0.00000000 0.00000000 0.00000000 15.00000000 0.00000000 0.00000000 0.00000000 15.00000000" energy_frozen_part=0.00000000 Properties=species:S:1:pos:R:3:velocities:R:3:Z:I:1
H         9.45937529       4.45280670       0.38665144         0.00000000       0.00000000       0.00000000          1
H         1.39706142       4.17612380       0.39405192         0.00000000       0.00000000       0.00000000          1
H        10.75310139       3.46991862       2.11115692         0.00000000       0.00000000       0.00000000          1
H        10.62084433       1.14916985       6.89425931         0.00000000       0.00000000       0.00000000          1
H         3.30379830       4.96142581       9.03182276         0.00000000       0.00000000       0.00000000          1
H         5.15226596       6.34882573       9.40529163         0.00000000       0.00000000       0.00000000          1
6
pbc=[F, F, F] list_num_par=6 frozen=false iter=29 energy=-0.00170285 Lattice="15.00000000 0.00000000 0.00000000 0.00000000 15.00000000 0.00000000 0.00000000 0.00000000 15.00000000" energy_frozen_part=0.00000000 Properties=species:S:1:pos:R:3:velocities:R:3:Z:I:1
H        10.31788216       1.02878157       8.80281972         0.00000000       0.00000000       0.00000000          1
H         7.86008079      14.48753038      11.04521264         0.00000000       0.00000000       0.00000000          1
H         2.30945362       9.83483291      14.94592257         0.00000000       0.00000000       0.00000000          1
H         5.66739469       6.24449639       9.62713607         0.00000000       0.00000000       0.00000000          1
H        13.72476109       4.62454063       1.08543944         0.00000000       0.00000000       0.00000000          1
H         2.64603990      13.69647854       0.68189886         0.00000000       0.00000000       0.00000000          1
6
pbc=[F, F, F] list_num_par=6 frozen=false iter=39 energy=-0.00418515 Lattice="15.00000000 0.00000000 0.00000000 0.00000000 15.00000000 0.00000000 0.00000000 0.00000000 15.00000000" energy_frozen_part=0.00000000 Properties=species:S:1:pos:R:3:velocities:R:3:Z:I:1
H        13.17343963      12.06036379       1.97543024         0.00000000       0.00000000       0.00000000          1
H         8.65525384       4.43774020       9.98073320         0.00000000       0.00000000       0.00000000          1
H         6.34105877      14.74230837      12.21570201         0.00000000       0.00000000       0.00000000          1
H        14.09487059       0.77220798       5.67433066         0.00000000       0.00000000       0.00000000          1
H         1.04835873      11.69239173       8.52797191         0.00000000       0.00000000       0.00000000          1
H         8.85308080       7.31933638       4.89520576         0.00000000       0.00000000       0.00000000          1
6
pbc=[F, F, F] list_num_par=6 frozen=false iter=49 energy=-0.00665361 Lattice="15.00000000 0.00000000 0.00000000 0.00000000 15.00000000 0.00000000 0.00000000 0.00000000 15.00000000" energy_frozen_part=0.00000000 Properties=species:S:1:pos:R:3:velocities:R:3:Z:I:1
H         9.67792805       0.04225086      11.16074517         0.00000000       0.00000000       0.00000000          1
H         8.55800979       0.12050166       1.00301746         0.00000000       0.00000000       0.00000000          1
H         4.94685248      14.40036587       3.48508223         0.00000000       0.00000000       0.00000000          1
H        10.16708955       5.52533893      11.87138221         0.00000000       0.00000000       0.00000000          1
H         5.75950471       9.37524642      11.87479054         0.00000000       0.00000000       0.00000000          1
H         4.20682794       7.04574176       5.14318424         0.00000000       0.00000000       0.00000000          1
6
pbc=[F, F, F] list_num_par=6 frozen=false iter=59 energy=-0.00860374 Lattice="15.00000000 0.00000000 0.00000000 0.00000000 15.00000000 0.00000000 0.00000000 0.00000000 15.00000000" energy_frozen_part=0.00000000 Properties=species:S:1:pos:R:3:velocities:R:3:Z:I:1
H         9.70620645       7.86254441      14.59805481         0.00000000       0.00000000       0.00000000          1
H         0.35287550      12.95072364      13.12821491         0.00000000       0.00000000       0.00000000          1
H        12.36592421       6.23974309       0.59963609         0.00000000       0.00000000       0.00000000          1
H         6.38160166       7.24648400       6.40809996         0.00000000       0.00000000       0.00000000          1
H        13.88365912      14.53155041       0.24792237         0.00000000       0.00000000       0.00000000          1
H        12.70271583       1.67274867       1.90045823         0.00000000       0.00000000       0.00000000          1
6
pbc=[F, F, F] list_num_par=6 frozen=false iter=69 energy=-0.01108989 Lattice="15.00000000 0.00000000 0.00000000 0.00000000 15.00000000 0.00000000 0.00000000 0.00000000 15.00000000" energy_frozen_part=0.00000000 Properties=species:S:1:pos:R:3:velocities:R:3:Z:I:1
H        11.55081101       9.56377806      12.36946003         0.00000000       0.00000000       0.00000000          1
H         9.80879441      11.97419030       7.78166220         0.00000000       0.00000000       0.00000000          1
H         4.08964913       4.66240733      14.12819063         0.00000000       0.00000000       0.00000000          1
H        14.22854498       8.24920414       1.47784598         0.00000000       0.00000000       0.00000000          1
H         9.51121438       1.17493023       2.91003204         0.00000000       0.00000000       0.00000000          1
H         4.65506357       7.43704774      10.03080360         0.00000000       0.00000000       0.00000000          1
6
pbc=[F, F, F] list_num_par=6 frozen=false iter=79 energy=-0.01370075 Lattice="15.00000000 0.00000000 0.00000000 0.00000000 15.00000000 0.00000000 0.00000000 0.00000000 15.00000000" energy_frozen_part=0.00000000 Properties=species:S:1:pos:R:3:velocities:R:3:Z:I:1
H        12.34982419       4.35681443       3.40558336         0.00000000       0.00000000       0.00000000          1
H        12.61434227       1.23271068      14.17113030         0.00000000       0.00000000       0.00000000          1
H         3.52932473       3.55892718      11.08199955         0.00000000       0.00000000       0.00000000          1
H        12.34719097      12.70341661      11.02413434         0.00000000       0.00000000       0.00000000          1
H        13.92390841       0.22736489       3.13198876         0.00000000       0.00000000       0.00000000          1
H         6.70316073      13.41826828      14.06905339         0.00000000       0.00000000       0.00000000          1
6
pbc=[F, F, F] list_num_par=6 frozen=false iter=89 energy=-0.01681141 Lattice="15.00000000 0.00000000 0.00000000 0.00000000 15.00000000 0.00000000 0.00000000 0.00000000 15.00000000" energy_frozen_part=0.00000000 Properties=species:S:1:pos:R:3:velocities:R:3:Z:I:1
H        10.73129717      10.82096624      11.51381187         0.00000000       0.00000000       0.00000000          1
H         1.51740986       5.63260604       6.27870407         0.00000000       0.00000000       0.00000000          1
H         5.84779832       7.63578394      13.75676685         0.00000000       0.00000000       0.00000000          1
H         8.25771329      11.05281863       7.58055300         0.00000000       0.00000000       0.00000000          1
H        12.00988388       4.08041583      12.37363217         0.00000000       0.00000000       0.00000000          1
H         0.64056093       0.93519719       8.77443468         0.00000000       0.00000000       0.00000000          1
6
pbc=[F, F, F] list_num_par=6 frozen=false iter=99 energy=-0.02073922 Lattice="15.00000000 0.00000000 0.00000000 0.00000000 15.00000000 0.00000000 0.00000000 0.00000000 15.00000000" energy_frozen_part=0.00000000 Properties=species:S:1:pos:R:3:velocities:R:3:Z:I:1
H         7.42772129      13.87786604       5.30216175         0.00000000       0.00000000       0.00000000          1
H         6.82909159       5.67429233       2.56910970         0.00000000       0.00000000       0.00000000          1
H         6.18424353       3.73815542      14.26106097         0.00000000       0.00000000       0.00000000          1
H        12.32828491       1.87438428       5.34998318         0.00000000       0.00000000       0.00000000          1
H        13.00819625      11.72904831      13.17554169         0.00000000       0.00000000       0.00000000          1
H         9.46302271      12.99102881      14.74860520         0.00000000       0.00000000       0.00000000          1
6
pbc=[F, F, F] list_num_par=6 frozen=false iter=109 energy=-0.02919475 Lattice="15.00000000 0.00000000 0.00000000 0.00000000 15.00000000 0.00000000 0.00000000 0.00000000 15.00000000" energy_frozen_part=0.00000000 Properties=species:S:1:pos:R:3:velocities:R:3:Z:I:1
H        13.25327534      13.37535784       5.00282003         0.00000000       0.00000000       0.00000000          1
H         8.61032004       2.63204490      13.35007332         0.00000000       0.00000000       0.00000000          1
H         0.83040234       9.84479215       3.30547974         0.00000000       0.00000000       0.00000000          1
H         1.18689432      12.46968435      12.27017252         0.00000000       0.00000000       0.00000000          1
H         6.86562367       4.52024718       7.25175501         0.00000000       0.00000000       0.00000000          1
H         1.11686216      13.65122235       3.76549274         0.00000000       0.00000000       0.00000000          1
6
pbc=[F, F, F] list_num_par=6 frozen=false iter=119 energy=-0.03352466 Lattice="15.00000000 0.00000000 0.00000000 0.00000000 15.00000000 0.00000000 0.00000000 0.00000000 15.00000000" energy_frozen_part=0.00000000 Properties=species:S:1:pos:R:3:velocities:R:3:Z:I:1
H        13.20418226       2.56966482       9.31708622         0.00000000       0.00000000       0.00000000          1
H        10.48663142      10.11380149      12.52461486         0.00000000       0.00000000       0.00000000          1
H        14.10220344      14.02803940       2.79933611         0.00000000       0.00000000       0.00000000          1
H        11.87244359      13.73023871      14.93193981         0.00000000       0.00000000       0.00000000          1
H         1.61816188       6.37474412       1.34222257         0.00000000       0.00000000       0.00000000          1
H        13.67613786       0.17518133      12.46271316         0.00000000       0.00000000       0.00000000          1
6
pbc=[F, F, F] list_num_par=6 frozen=false iter=129 energy=-0.04183537 Lattice="15.00000000 0.00000000 0.00000000 0.00000000 15.00000000 0.00000000 0.00000000 0.00000000 15.00000000" energy_frozen_part=0.00000000 Properties=species:S:1:pos:R:3:velocities:R:3:Z:I:1
H        10.42321330       6.24278890       2.02101443         0.00000000       0.00000000       0.00000000          1
H        11.84202643       2.03536569       4.18486031         0.00000000       0.00000000       0.00000000          1
H        12.37699163       0.77589714      12.13191768         0.00000000       0.00000000       0.00000000          1
H        14.85016902      10.08246304       0.44043415         0.00000000       0.00000000       0.00000000          1
H        11.81789478       4.37445715      11.30743115         0.00000000       0.00000000       0.00000000          1
H         5.71016003      14.40684505       9.18966769         0.00000000       0.00000000       0.00000000          1
6
pbc=[F, F, F] list_num_par=6 frozen=false iter=139 energy=-0.04797800 Lattice="15.00000000 0.00000000 0.00000000 0.00000000 15.00000000 0.00000000 0.00000000 0.00000000 15.00000000" energy_frozen_part=0.00000000 Properties=species:S:1:pos:R:3:velocities:R:3:Z:I:1
H        12.30008694      12.38943759      11.15451983         0.00000000       0.00000000       0.00000000          1
H         5.35883090      10.79190539       0.98997579         0.00000000       0.00000000       0.00000000          1
H        10.88094322       3.69981122      10.76809494         0.00000000       0.00000000       0.00000000          1
H        13.53395362       5.77907546      12.34040367         0.00000000       0.00000000       0.00000000          1
H         8.33584376      13.67595384       9.84739222         0.00000000       0.00000000       0.00000000          1
H         1.86190148       7.73472475      10.34051525         0.00000000       0.00000000       0.00000000          1
6
pbc=[F, F, F] list_num_par=6 frozen=false iter=149 energy=-0.05365564 Lattice="15.00000000 0.00000000 0.00000000 0.00000000 15.00000000 0.00000000 0.00000000 0.00000000 15.00000000" energy_frozen_part=0.00000000 Properties=species:S:1:pos:R:3:velocities:R:3:Z:I:1
H         3.72488840       3.96795778      10.56039661         0.00000000       0.00000000       0.00000000          1
H         3.62767535       1.71714615       5.04254041         0.00000000       0.00000000       0.00000000          1
H         5.44839801       9.34027987      11.79239378         0.00000000       0.00000000       0.00000000          1
H         9.88227575      10.99487755      13.47285509         0.00000000       0.00000000       0.00000000          1
H         6.27313843       5.54503019       8.06169415         0.00000000       0.00000000       0.00000000          1
H         1.13491600      10.86485770      12.49591015         0.00000000       0.00000000       0.00000000          1
6
pbc=[F, F, F] list_num_par=6 frozen=false iter=159 energy=-0.05758767 Lattice="15.00000000 0.00000000 0.00000000 0.00000000 15.00000000 0.00000000 0.00000000 0.00000000 15.00000000" energy_frozen_part=0.00000000 Properties=species:S:1:pos:R:3:velocities:R:3:Z:I:1
H         0.95890239       5.16446637       0.43319759         0.00000000       0.00000000       0.00000000          1
H        12.71836376       7.18843653       7.40875349         0.00000000       0.00000000       0.00000000          1
H        12.33507899       4.09469837       4.07596034         0.00000000       0.00000000       0.00000000          1
H         6.19267161       9.24978095       8.83211874         0.00000000       0.00000000       0.00000000          1
H        14.82530701       1.32687294       4.31569866         0.00000000       0.00000000       0.00000000          1
H        11.08389393       9.44705023       3.62032930         0.00000000       0.00000000       0.00000000          1
6
pbc=[F, F, F] list_num_par=6 frozen=false iter=169 energy=-0.06130091 Lattice="15.00000000 0.00000000 0.00000000 0.00000000 15.00000000 0.00000000 0.00000000 0.00000000 15.00000000" energy_frozen_part=0.00000000 Properties=species:S:1:pos:R:3:velocities:R:3:Z:I:1
H        13.37238251       2.50148344       9.49915867         0.00000000       0.00000000       0.00000000          1
H        10.37993020      10.14628519      12.24885994         0.00000000       0.00000000       0.00000000          1
H        14.12774917      13.61370187       2.72733846         0.00000000       0.00000000       0.00000000          1
H        11.59459117      13.57884917      14.87889269         0.00000000       0.00000000       0.00000000          1
H         1.57519944       6.39907174       1.18996882         0.00000000       0.00000000       0.00000000          1
H        14.00547297       0.41994479      12.17134911         0.00000000       0.00000000       0.00000000          1
6
pbc=[F, F, F] list_num_par=6 frozen=false iter=179 energy=-0.06693873 Lattice="15.00000000 0.00000000 0.00000000 0.00000000 15.00000000 0.00000000 0.00000000 0.00000000 15.00000000" energy_frozen_part=0.00000000 Properties=species:S:1:pos:R:3:velocities:R:3:Z:I:1
H         9.72294944       4.33135035       0.46452460         0.00000000       0.00000000       0.00000000          1
H        11.71982156       7.53910397       4.02701927         0.00000000       0.00000000       0.00000000          1
H        14.72253889       0.78576681       3.19057014         0.00000000       0.00000000       0.00000000          1
H         8.20246481      13.64010261       1.56190424         0.00000000       0.00000000       0.00000000          1
H        14.92865934       6.54981680      10.18678457         0.00000000       0.00000000       0.00000000          1
H        14.84568542       8.60450844       4.62797485         0.00000000       0.00000000       0.00000000          1
6
pbc=[F, F, F] list_num_par=6 frozen=false iter=189 energy=-0.07131456 Lattice="15.00000000 0.00000000 0.00000000 0.00000000 15.00000000 0.00000000 0.00000000 0.00000000 15.00000000" energy_frozen_part=0.00000000 Properties=species:S:1:pos:R:3:velocities:R:3:Z:I:1
H         9.93210615       6.14027535       6.17955993         0.00000000       0.00000000       0.00000000          1
H         0.55132769       3.41121476       0.73587416         0.00000000       0.00000000       0.00000000          1
H        13.84693427       2.82073557       0.04340669         0.00000000       0.00000000       0.00000000          1
H         9.30023553       5.64093961       2.92904010         0.00000000       0.00000000       0.00000000          1
H         8.62055956      10.40066396       2.81371397         0.00000000       0.00000000       0.00000000          1
H        11.53638051      14.63234584       6.90813008         0.00000000       0.00000000       0.00000000          1
6
pbc=[F, F, F] list_num_par=6 frozen=false iter=199 energy=-0.07739336 Lattice="15.00000000 0.00000000 0.00000000 0.00000000 15.00000000 0.00000000 0.00000000 0.00000000 15.00000000" energy_frozen_part=0.00000000 Properties=species:S:1:pos:R:3:velocities:R:3:Z:I:1
H        12.12630497      12.97938219      14.22337847         0.00000000       0.00000000       0.00000000          1
H         4.82219487       9.44045634      11.51056125         0.00000000       0.00000000       0.00000000          1
H         7.11480184       7.14448035       7.95204588         0.00000000       0.00000000       0.00000000          1
H         9.13206903      14.73518190       0.78990799         0.00000000       0.00000000       0.00000000          1
H        10.17598969       8.62950073       4.62598279         0.00000000       0.00000000       0.00000000          1
H         6.00876487       5.88250911      11.38428697         0.00000000       0.00000000       0.00000000          1
6
pbc=[F, F, F] list_num_par=6 frozen=false iter=209 energy=-0.08326528 Lattice="15.00000000 0.00000000 0.00000000 0.00000000 15.00000000 0.00000000 0.00000000 0.00000000 15.00000000" energy_frozen_part=0.00000000 Properties=species:S:1:pos:R:3:velocities:R:3:Z:I:1
H         0.24027927      10.57486732       5.91790642         0.00000000       0.00000000       0.00000000          1
H         8.23417414       0.94947944       6.35745800         0.00000000       0.00000000       0.00000000          1
H         7.91815878       5.00268059      11.55757354         0.00000000       0.00000000       0.00000000          1
H         6.81844725       3.77652657       8.28573078         0.00000000       0.00000000       0.00000000          1
H         8.98727006       7.24296993       4.65696294         0.00000000       0.00000000       0.00000000          1
H         2.57302046       7.29247096      10.35912898         0.00000000       0.00000000       0.00000000          1
6
pbc=[F, F, F] list_num_par=6 frozen=false iter=219 energy=-0.08937640 Lattice="15.00000000 0.00000000 0.00000000 0.00000000 15.00000000 0.00000000 0.00000000 0.00000000 15.00000000" energy_frozen_part=0.00000000 Properties=species:S:1:pos:R:3:velocities:R:3:Z:I:1
H         8.66872315       0.76004044       2.35330717         0.00000000       0.00000000       0.00000000          1
H         4.35231741       0.19482116       5.84174219         0.00000000       0.00000000       0.00000000          1
H         3.93098489       5.01765487       7.04948960         0.00000000       0.00000000       0.00000000          1
H         1.11634912       4.95083455       2.00825423         0.00000000       0.00000000       0.00000000          1
H         2.03016450       1.84339011      12.14514580         0.00000000       0.00000000       0.00000000          1
H         3.36907650       3.77205587       1.45193416         0.00000000       0.00000000       0.00000000          1
6
pbc=[F, F, F] list_num_par=6 frozen=false iter=229 energy=-0.09319298 Lattice="15.00000000 0.00000000 0.00000000 0.00000000 15.00000000 0.00000000 0.00000000 0.00000000 15.00000000" energy_frozen_part=0.00000000 Properties=species:S:1:pos:R:3:velocities:R:3:Z:I:1
H         7.49129094       7.20918084       3.80610238         0.00000000       0.00000000       0.00000000          1
H         9.51048201       4.78287948       6.31166083         0.00000000       0.00000000       0.00000000          1
H         6.59258260      13.40558546      12.85343560         0.00000000       0.00000000       0.00000000          1
H         0.39649343       8.03119922       2.16211338         0.00000000       0.00000000       0.00000000          1
H        10.77309101       2.74480014       0.42446887         0.00000000       0.00000000       0.00000000          1
H         6.27685817       8.84683730       1.27687065         0.00000000       0.00000000       0.00000000          1
6
pbc=[F, F, F] list_num_par=6 frozen=false iter=239 energy=-0.09718615 Lattice="15.00000000 0.00000000 0.00000000 0.00000000 15.00000000 0.00000000 0.00000000 0.00000000 15.00000000" energy_frozen_part=0.00000000 Properties=species:S:1:pos:R:3:velocities:R:3:Z:I:1
H         5.55214239       5.30111388      11.57331799         0.00000000       0.00000000       0.00000000          1
H        14.43613276       9.78906384       7.34048398         0.00000000       0.00000000       0.00000000          1
H         6.42861218       2.69217682       7.67032299         0.00000000       0.00000000       0.00000000          1
H         3.37745368       0.04403217       9.34403269         0.00000000       0.00000000       0.00000000          1
H         7.43261171       5.80093961      14.16322003         0.00000000       0.00000000       0.00000000          1
H         0.86038558       0.54910529      13.68870181         0.00000000       0.00000000       0.00000000          1
6
pbc=[F, F, F] list_num_par=6 frozen=false iter=249 energy=-0.10070562 Lattice="15.00000000 0.00000000 0.00000000 0.00000000 15.00000000 0.00000000 0.00000000 0.00000000 15.00000000" energy_frozen_part=0.00000000 Properties=species:S:1:pos:R:3:velocities:R:3:Z:I:1
H        11.08321584       4.27225938       5.67476074         0.00000000       0.00000000       0.00000000          1
H         5.10083200       9.27640629       5.54080062         0.00000000       0.00000000       0.00000000          1
H         6.06373281       8.53665868       2.42709987         0.00000000       0.00000000       0.00000000          1
H        13.91720684      12.52287625       5.25995756         0.00000000       0.00000000       0.00000000          1
H         6.58894503       4.92793315       1.59761153         0.00000000       0.00000000       0.00000000          1
H         9.05941829      13.75626377       7.22451059         0.00000000       0.00000000       0.00000000          1
6
pbc=[F, F, F] list_num_par=6 frozen=false iter=259 energy=-0.10349022 Lattice="15.00000000 0.00000000 0.00000000 0.00000000 15.00000000 0.00000000 0.00000000 0.00000000 15.00000000" energy_frozen_part=0.00000000 Properties=species:S:1:pos:R:3:velocities:R:3:Z:I:1
H         9.07184485       7.71415695       0.10054523         0.00000000       0.00000000       0.00000000          1
H         9.28665471       3.62581394       3.26797227         0.00000000       0.00000000       0.00000000          1
H         6.20623367      14.02213122       4.96482860         0.00000000       0.00000000       0.00000000          1
H        10.94934787       4.43840218      11.46212629         0.00000000       0.00000000       0.00000000          1
H         5.10780292      14.32856265       8.46322045         0.00000000       0.00000000       0.00000000          1
H        12.07784555       6.32437039       0.93682072         0.00000000       0.00000000       0.00000000          1
6
pbc=[F, F, F] list_num_par=6 frozen=false iter=269 energy=-0.10748325 Lattice="15.00000000 0.00000000 0.00000000 0.00000000 15.00000000 0.00000000 0.00000000 0.00000000 15.00000000" energy_frozen_part=0.00000000 Properties=species:S:1:pos:R:3:velocities:R:3:Z:I:1
H         6.59633384       2.40116588       8.91954288         0.00000000       0.00000000       0.00000000          1
H         6.46412268       7.25090208       0.72472956         0.00000000       0.00000000       0.00000000          1
H        14.85833523       1.08053627       3.33364466         0.00000000       0.00000000       0.00000000          1
H         4.85516937       4.02780099      13.56146497         0.00000000       0.00000000       0.00000000          1
H         4.24766478       6.90234336      12.05410522         0.00000000       0.00000000       0.00000000          1
H        14.98061374       2.05805253       6.79976378         0.00000000       0.00000000       0.00000000          1
6
pbc=[F, F, F] list_num_par=6 frozen=false iter=279 energy=-0.11099921 Lattice="15.00000000 0.00000000 0.00000000 0.00000000 15.00000000 0.00000000 0.00000000 0.00000000 15.00000000" energy_frozen_part=0.00000000 Properties=species:S:1:pos:R:3:velocities:R:3:Z:I:1
H         0.56007202       0.91818963      13.78652507         0.00000000       0.00000000       0.00000000          1
H         5.17153274       4.52284541       8.23388495         0.00000000       0.00000000       0.00000000          1
H        10.51254875       8.27568819       0.75599214         0.00000000       0.00000000       0.00000000          1
H        13.97476373      11.21677902       0.64961263         0.00000000       0.00000000       0.00000000          1
H         7.36494831       2.82125860       7.98576236         0.00000000       0.00000000       0.00000000          1
H        14.28580791      11.94659253       8.89445937         0.00000000       0.00000000       0.00000000          1
6
pbc=[F, F, F] list_num_par=6 frozen=false iter=289 energy=-0.11355063 Lattice="15.00000000 0.00000000 0.00000000 0.00000000 15.00000000 0.00000000 0.00000000 0.00000000 15.00000000" energy_frozen_part=0.00000000 Properties=species:S:1:pos:R:3:velocities:R:3:Z:I:1
H        10.05011477      14.35968160       5.44761944         0.00000000       0.00000000       0.00000000          1
H        14.86131046       3.43143870      10.78180845         0.00000000       0.00000000       0.00000000          1
H         5.20519064       6.28007975       7.78321940         0.00000000       0.00000000       0.00000000          1
H         7.02304598       1.35768896      12.16313574         0.00000000       0.00000000       0.00000000          1
H        13.53436188       0.57390902       9.61895024         0.00000000       0.00000000       0.00000000          1
H         5.38022343       5.95529202       5.23319201         0.00000000       0.00000000       0.00000000          1
6
pbc=[F, F, F] list_num_par=6 frozen=false iter=299 energy=-0.11673928 Lattice="15.00000000 0.00000000 0.00000000 0.00000000 15.00000000 0.00000000 0.00000000 0.00000000 15.00000000" energy_frozen_part=0.00000000 Properties=species:S:1:pos:R:3:velocities:R:3:Z:I:1
H         5.61828923       8.61078071       5.87443241         0.00000000       0.00000000       0.00000000          1
H         7.26449706       0.23185839      14.23174943         0.00000000       0.00000000       0.00000000          1
H         0.76315195      10.30199886       4.45198280         0.00000000       0.00000000       0.00000000          1
H         7.41560440       7.80873301       8.27209383         0.00000000       0.00000000       0.00000000          1
H         4.50299886      14.24847398       3.30650548         0.00000000       0.00000000       0.00000000          1
H         2.04318136      13.55117742       6.98114747         0.00000000       0.00000000       0.00000000          1
6
pbc=[F, F, F] list_num_par=6 frozen=false iter=309 energy=-0.11907663 Lattice="15.00000000 0.00000000 0.00000000 0.00000000 15.00000000 0.00000000 0.00000000 0.00000000 15.00000000" energy_frozen_part=0.00000000 Properties=species:S:1:pos:R:3:velocities:R:3:Z:I:1
H         6.83912900      11.92509813       0.74156947         0.00000000       0.00000000       0.00000000          1
H         1.28313041       3.28213871       3.16082756         0.00000000       0.00000000       0.00000000          1