6
pbc=[F, F, F] list_num_par=6 frozen=false iter=20000 energy=-1.26974174 Lattice="15.00000000 0.00000000 0.00000000 0.00000000 15.00000000 0.00000000 0.00000000 0.00000000 15.00000000" energy_frozen_part=0.00000000 Properties=species:S:1:pos:R:3:velocities:R:3:Z:I:1
H         7.04695086      10.32964503       8.55250702         0.00000000       0.00000000       0.00000000          1
H         8.05809719      11.37110722      10.93939325         0.00000000       0.00000000       0.00000000          1
H        10.01569477      12.75577313       9.50594904         0.00000000       0.00000000       0.00000000          1
H         7.31689404      13.09228180       8.86757456         0.00000000       0.00000000       0.00000000          1
H         9.00455010      11.71431106       7.11905786         0.00000000       0.00000000       0.00000000          1
H         9.74574926       9.99313372       9.19088290         0.00000000       0.00000000       0.00000000          1
6
pbc=[F, F, F] list_num_par=6 frozen=false iter=20000 energy=-1.26974174 Lattice="15.00000000 0.00000000 0.00000000 0.00000000 15.00000000 0.00000000 0.00000000 0.00000000 15.00000000" energy_frozen_part=0.00000000 Properties=species:S:1:pos:R:3:velocities:R:3:Z:I:1
H         7.04697241      10.32961922       8.55254167         0.00000000       0.00000000       0.00000000          1
H         8.05811916      11.37103959      10.93944442         0.00000000       0.00000000       0.00000000          1
H        10.01567990      12.75578032       9.50601231         0.00000000       0.00000000       0.00000000          1
H         7.31686854      13.09224511       8.86767069         0.00000000       0.00000000       0.00000000          1
H         9.00453693      11.71435228       7.11910720         0.00000000       0.00000000       0.00000000          1
H         9.74578863       9.99314370       9.19088384         0.00000000       0.00000000       0.00000000          1
6
pbc=[F, F, F] list_num_par=6 frozen=false iter=20000 energy=-1.26974174 Lattice="15.00000000 0.00000000 0.00000000 0.00000000 15.00000000 0.00000000 0.00000000 0.00000000 15.00000000" energy_frozen_part=0.00000000 Properties=species:S:1:pos:R:3:velocities:R:3:Z:I:1
H         7.04837435      10.32750932       8.55367329         0.00000000       0.00000000       0.00000000          1
H         8.05833293      11.37176484      10.93984112         0.00000000       0.00000000       0.00000000          1
H        10.01474168      12.75716919       9.50547688         0.00000000       0.00000000       0.00000000          1
H         7.31567644      13.09063340       8.86662756         0.00000000       0.00000000       0.00000000          1
H         9.00478284      11.71291715       7.11930825         0.00000000       0.00000000       0.00000000          1
H         9.74743587       9.99403815       9.19252477         0.00000000       0.00000000       0.00000000          1
6
pbc=[F, F, F] list_num_par=6 frozen=false iter=20000 energy=-1.26974174 Lattice="15.00000000 0.00000000 0.00000000 0.00000000 15.00000000 0.00000000 0.00000000 0.00000000 15.00000000" energy_frozen_part=0.00000000 Properties=species:S:1:pos:R:3:velocities:R:3:Z:I:1
H         7.04832807      10.32755317       8.55346916         0.00000000       0.00000000       0.00000000          1
H         8.05836149      11.37160467      10.93969082         0.00000000       0.00000000       0.00000000          1
H        10.01476540      12.75708774       9.50539575         0.00000000       0.00000000       0.00000000          1
H         7.31569514      13.09065536       8.86662262         0.00000000       0.00000000       0.00000000          1
H         9.00473651      11.71303575       7.11917319         0.00000000       0.00000000       0.00000000          1
H         9.74740787       9.99398756       9.19224204         0.00000000       0.00000000       0.00000000          1
6
pbc=[F, F, F] list_num_par=6 frozen=false iter=20000 energy=-1.26974174 Lattice="15.00000000 0.00000000 0.00000000 0.00000000 15.00000000 0.00000000 0.00000000 0.00000000 15.00000000" energy_frozen_part=0.00000000 Properties=species:S:1:pos:R:3:velocities:R:3:Z:I:1
H         7.04830998      10.32755724       8.55346132         0.00000000       0.00000000       0.00000000          1
H         8.05835609      11.37159302      10.93969187         0.00000000       0.00000000       0.00000000          1
H        10.01476745      12.75707097       9.50539655         0.00000000       0.00000000       0.00000000          1
H         7.31569508      13.09065713       8.86662972         0.00000000       0.00000000       0.00000000          1
H         9.00472134      11.71302860       7.11917081         0.00000000       0.00000000       0.00000000          1
H         9.74738833       9.99397024       9.19222995         0.00000000       0.00000000       0.00000000          1
6
pbc=[F, F, F] list_num_par=6 frozen=false iter=20000 energy=-1.26974174 Lattice="15.00000000 0.00000000 0.00000000 0.00000000 15.00000000 0.00000000 0.00000000 0.00000000 15.00000000" energy_frozen_part=0.00000000 Properties=species:S:1:pos:R:3:velocities:R:3:Z:I:1
H         7.04693169      10.32965791       8.55252128         0.00000000       0.00000000       0.00000000          1
H         8.05809430      11.37110194      10.93940990         0.00000000       0.00000000       0.00000000          1
H        10.01569615      12.75575976       9.50594374         0.00000000       0.00000000       0.00000000          1
H         7.31689945      13.09228617       8.86759200         0.00000000       0.00000000       0.00000000          1
H         9.00452788      11.71430789       7.11905929         0.00000000       0.00000000       0.00000000          1
H         9.74572945       9.99312714       9.19088174         0.00000000       0.00000000       0.00000000          1
6
pbc=[F, F, F] list_num_par=6 frozen=false iter=20000 energy=-1.26974174 Lattice="15.00000000 0.00000000 0.00000000 0.00000000 15.00000000 0.00000000 0.00000000 0.00000000 15.00000000" energy_frozen_part=0.00000000 Properties=species:S:1:pos:R:3:velocities:R:3:Z:I:1
H         7.04707659      10.32964565       8.55238913         0.00000000       0.00000000       0.00000000          1
H         8.05809681      11.37107867      10.93934752         0.00000000       0.00000000       0.00000000          1
H        10.01584240      12.75567017       9.50602609         0.00000000       0.00000000       0.00000000          1
H         7.31709726      13.09227304       8.86746449         0.00000000       0.00000000       0.00000000          1
H         9.00481940      11.71424515       7.11906393         0.00000000       0.00000000       0.00000000          1
H         9.74581863       9.99304346       9.19094449         0.00000000       0.00000000       0.00000000          1
6
pbc=[F, F, F] list_num_par=6 frozen=false iter=20000 energy=-1.26974174 Lattice="15.00000000 0.00000000 0.00000000 0.00000000 15.00000000 0.00000000 0.00000000 0.00000000 15.00000000" energy_frozen_part=0.00000000 Properties=species:S:1:pos:R:3:velocities:R:3:Z:I:1
H         7.04692996      10.32964572       8.55252037         0.00000000       0.00000000       0.00000000          1
H         8.05809888      11.37108058      10.93939997         0.00000000       0.00000000       0.00000000          1
H        10.01568796      12.75575286       9.50593860         0.00000000       0.00000000       0.00000000          1
H         7.31688302      13.09227467       8.86759195         0.00000000       0.00000000       0.00000000          1
H         9.00452191      11.71431074       7.11905100         0.00000000       0.00000000       0.00000000          1
H         9.74573594       9.99311619       9.19086121         0.00000000       0.00000000       0.00000000          1
6
pbc=[F, F, F] list_num_par=6 frozen=false iter=20000 energy=-1.26974174 Lattice="15.00000000 0.00000000 0.00000000 0.00000000 15.00000000 0.00000000 0.00000000 0.00000000 15.00000000" energy_frozen_part=0.00000000 Properties=species:S:1:pos:R:3:velocities:R:3:Z:I:1
H         7.04706412      10.32949018       8.55226629         0.00000000       0.00000000       0.00000000          1
H         8.05798716      11.37087363      10.93928007         0.00000000       0.00000000       0.00000000          1
H        10.01572548      12.75558197       9.50604688         0.00000000       0.00000000       0.00000000          1
H         7.31697922      13.09211114       8.86743292         0.00000000       0.00000000       0.00000000          1
H         9.00479533      11.71420248       7.11903222         0.00000000       0.00000000       0.00000000          1
H         9.74580440       9.99296032       9.19087349         0.00000000       0.00000000       0.00000000          1
6
pbc=[F, F, F] list_num_par=6 frozen=false iter=20000 energy=-1.26974174 Lattice="15.00000000 0.00000000 0.00000000 0.00000000 15.00000000 0.00000000 0.00000000 0.00000000 15.00000000" energy_frozen_part=0.00000000 Properties=species:S:1:pos:R:3:velocities:R:3:Z:I:1
H         7.04698511      10.32961535       8.55253642         0.00000000       0.00000000       0.00000000          1
H         8.05814524      11.37102471      10.93944028         0.00000000       0.00000000       0.00000000          1
H        10.01570646      12.75576046       9.50599340         0.00000000       0.00000000       0.00000000          1
H         7.31689554      13.09224546       8.86767389         0.00000000       0.00000000       0.00000000          1
H         9.00453798      11.71435243       7.11909443         0.00000000       0.00000000       0.00000000          1
H         9.74580266       9.99313135       9.19086520         0.00000000       0.00000000       0.00000000          1
6
pbc=[F, F, F] list_num_par=6 frozen=false iter=20000 energy=-1.26974174 Lattice="15.00000000 0.00000000 0.00000000 0.00000000 15.00000000 0.00000000 0.00000000 0.00000000 15.00000000" energy_frozen_part=0.00000000 Properties=species:S:1:pos:R:3:velocities:R:3:Z:I:1
H         7.04697584      10.32961453       8.55252861         0.00000000       0.00000000       0.00000000          1
H         8.05811891      11.37103348      10.93943753         0.00000000       0.00000000       0.00000000          1
H        10.01567216      12.75577876       9.50600506         0.00000000       0.00000000       0.00000000          1
H         7.31686172      13.09224530       8.86766138         0.00000000       0.00000000       0.00000000          1
H         9.00453786      11.71435702       7.11910268         0.00000000       0.00000000       0.00000000          1
H         9.74578559       9.99313855       9.19087342         0.00000000       0.00000000       0.00000000          1
6
pbc=[F, F, F] list_num_par=6 frozen=false iter=20000 energy=-1.26974174 Lattice="15.00000000 0.00000000 0.00000000 0.00000000 15.00000000 0.00000000 0.00000000 0.00000000 15.00000000" energy_frozen_part=0.00000000 Properties=species:S:1:pos:R:3:velocities:R:3:Z:I:1
H         7.04857802      10.32806356       8.55347533         0.00000000       0.00000000       0.00000000          1
H         8.05854784      11.37230563      10.93965302         0.00000000       0.00000000       0.00000000          1
H        10.01505757      12.75759197       9.50530762         0.00000000       0.00000000       0.00000000          1
H         7.31601849      13.09118671       8.86640015         0.00000000       0.00000000       0.00000000          1
H         9.00508480      11.71335642       7.11913674         0.00000000       0.00000000       0.00000000          1
H         9.74761322       9.99447790       9.19239036         0.00000000       0.00000000       0.00000000          1
6
pbc=[F, F, F] list_num_par=6 frozen=false iter=20000 energy=-1.26974174 Lattice="15.00000000 0.00000000 0.00000000 0.00000000 15.00000000 0.00000000 0.00000000 0.00000000 15.00000000" energy_frozen_part=0.00000000 Properties=species:S:1:pos:R:3:velocities:R:3:Z:I:1
H         7.04690086      10.32962168       8.55257021         0.00000000       0.00000000       0.00000000          1
H         8.05808825      11.37107502      10.93944264         0.00000000       0.00000000       0.00000000          1
H        10.01568919      12.75571354       9.50596740         0.00000000       0.00000000       0.00000000          1
H         7.31688944      13.09225320       8.86762073         0.00000000       0.00000000       0.00000000          1
H         9.00450777      11.71426197       7.11908600         0.00000000       0.00000000       0.00000000          1
H         9.74570815       9.99308526       9.19091228         0.00000000       0.00000000       0.00000000          1
6
pbc=[F, F, F] list_num_par=6 frozen=false iter=20000 energy=-1.26974174 Lattice="15.00000000 0.00000000 0.00000000 0.00000000 15.00000000 0.00000000 0.00000000 0.00000000 15.00000000" energy_frozen_part=0.00000000 Properties=species:S:1:pos:R:3:velocities:R:3:Z:I:1
H         7.04706709      10.32961256       8.55241879         0.00000000       0.00000000       0.00000000          1
H         8.05804393      11.37110602      10.93935900         0.00000000       0.00000000       0.00000000          1
H        10.01580030      12.75569283       9.50603770         0.00000000       0.00000000       0.00000000          1
H         7.31706282      13.09225124       8.86743018         0.00000000       0.00000000       0.00000000          1
H         9.00482677      11.71418631       7.11909494         0.00000000       0.00000000       0.00000000          1
H         9.74580994       9.99305279       9.19102857         0.00000000       0.00000000       0.00000000          1
6
pbc=[F, F, F] list_num_par=6 frozen=false iter=20000 energy=-1.26974174 Lattice="15.00000000 0.00000000 0.00000000 0.00000000 15.00000000 0.00000000 0.00000000 0.00000000 15.00000000" energy_frozen_part=0.00000000 Properties=species:S:1:pos:R:3:velocities:R:3:Z:I:1
H         7.04834371      10.32750360       8.55365692         0.00000000       0.00000000       0.00000000          1
H         8.05830731      11.37173553      10.93983937         0.00000000       0.00000000       0.00000000          1
H        10.01471353      12.75715773       9.50549589         0.00000000       0.00000000       0.00000000          1
H         7.31565057      13.09062988       8.86663587         0.00000000       0.00000000       0.00000000          1
H         9.00475874      11.71292345       7.11931164         0.00000000       0.00000000       0.00000000          1
H         9.74740354       9.99403135       9.19251228         0.00000000       0.00000000       0.00000000          1
6
pbc=[F, F, F] list_num_par=6 frozen=false iter=20000 energy=-1.26974174 Lattice="15.00000000 0.00000000 0.00000000 0.00000000 15.00000000 0.00000000 0.00000000 0.00000000 15.00000000" energy_frozen_part=0.00000000 Properties=species:S:1:pos:R:3:velocities:R:3:Z:I:1
H         7.04699207      10.32959064       8.55255813         0.00000000       0.00000000       0.00000000          1
H         8.05814805      11.37108166      10.93943038         0.00000000       0.00000000       0.00000000          1
H        10.01572800      12.75574497       9.50594888         0.00000000       0.00000000       0.00000000          1
H         7.31691566      13.09222706       8.86758680         0.00000000       0.00000000       0.00000000          1
H         9.00457688      11.71425520       7.11908290         0.00000000       0.00000000       0.00000000          1
H         9.74579441       9.99310170       9.19091844         0.00000000       0.00000000       0.00000000          1
6
pbc=[F, F, F] list_num_par=6 frozen=false iter=20000 energy=-1.26974174 Lattice="15.00000000 0.00000000 0.00000000 0.00000000 15.00000000 0.00000000 0.00000000 0.00000000 15.00000000" energy_frozen_part=0.00000000 Properties=species:S:1:pos:R:3:velocities:R:3:Z:I:1
H         7.04832226      10.32753773       8.55347686         0.00000000       0.00000000       0.00000000          1
H         8.05834521      11.37160788      10.93970011         0.00000000       0.00000000       0.00000000          1
H        10.01474668      12.75709324       9.50539989         0.00000000       0.00000000       0.00000000          1
H         7.31567477      13.09063865       8.86662651         0.00000000       0.00000000       0.00000000          1
H         9.00472865      11.71301685       7.11917687         0.00000000       0.00000000       0.00000000          1
H         9.74739280       9.99398310       9.19225591         0.00000000       0.00000000       0.00000000          1
6
pbc=[F, F, F] list_num_par=6 frozen=false iter=20000 energy=-1.26974174 Lattice="15.00000000 0.00000000 0.00000000 0.00000000 15.00000000 0.00000000 0.00000000 0.00000000 15.00000000" energy_frozen_part=0.00000000 Properties=species:S:1:pos:R:3:velocities:R:3:Z:I:1
H         7.04693767      10.32962938       8.55250304         0.00000000       0.00000000       0.00000000          1
H         8.05809129      11.37107102      10.93939373         0.00000000       0.00000000       0.00000000          1
H        10.01569887      12.75572716       9.50594808         0.00000000       0.00000000       0.00000000          1
H         7.31689795      13.09225533       8.86757718         0.00000000       0.00000000       0.00000000          1
H         9.00455178      11.71427750       7.11905846         0.00000000       0.00000000       0.00000000          1
H         9.74573918       9.99309427       9.19088051         0.00000000       0.00000000       0.00000000          1
6
pbc=[F, F, F] list_num_par=6 frozen=false iter=20000 energy=-1.26974174 Lattice="15.00000000 0.00000000 0.00000000 0.00000000 15.00000000 0.00000000 0.00000000 0.00000000 15.00000000" energy_frozen_part=0.00000000 Properties=species:S:1:pos:R:3:velocities:R:3:Z:I:1
H         7.04834059      10.32752511       8.55369218         0.00000000       0.00000000       0.00000000          1
H         8.05832472      11.37176240      10.93986163         0.00000000       0.00000000       0.00000000          1
H        10.01474146      12.75715684       9.50549350         0.00000000       0.00000000       0.00000000          1
H         7.31567986      13.09065818       8.86665904         0.00000000       0.00000000       0.00000000          1
H         9.00475698      11.71292503       7.11933051         0.00000000       0.00000000       0.00000000          1
H         9.74740764       9.99403320       9.19253591         0.00000000       0.00000000       0.00000000          1
6
pbc=[F, F, F] list_num_par=6 frozen=false iter=20000 energy=-1.26974174 Lattice="15.00000000 0.00000000 0.00000000 0.00000000 15.00000000 0.00000000 0.00000000 0.00000000 15.00000000" energy_frozen_part=0.00000000 Properties=species:S:1:pos:R:3:velocities:R:3:Z:I:1
H         7.04698984      10.32958161       8.55256156         0.00000000       0.00000000       0.00000000          1
H         8.05814720      11.37107735      10.93942691         0.00000000       0.00000000       0.00000000          1
H        10.01572184      12.75574381       9.50595103         0.00000000       0.00000000       0.00000000          1
H         7.31691745      13.09222780       8.86759172         0.00000000       0.00000000       0.00000000          1
H         9.00456921      11.71424963       7.11908126         0.00000000       0.00000000       0.00000000          1
H         9.74579567       9.99310068       9.19091342         0.00000000       0.00000000       0.00000000          1
6
pbc=[F, F, F] list_num_par=6 frozen=false iter=20000 energy=-1.26974174 Lattice="15.00000000 0.00000000 0.00000000 0.00000000 15.00000000 0.00000000 0.00000000 0.00000000 15.00000000" energy_frozen_part=0.00000000 Properties=species:S:1:pos:R:3:velocities:R:3:Z:I:1
H         7.04690096      10.32962488       8.55256754         0.00000000       0.00000000       0.00000000          1
H         8.05809046      11.37107647      10.93944097         0.00000000       0.00000000       0.00000000          1
H        10.01569887      12.75571339       9.50596577         0.00000000       0.00000000       0.00000000          1
H         7.31688944      13.09225320       8.86762073         0.00000000       0.00000000       0.00000000          1
H         9.00450945      11.71426793       7.11909262         0.00000000       0.00000000       0.00000000          1
H         9.74570729       9.99308236       9.19090851         0.00000000       0.00000000       0.00000000          1
6
pbc=[F, F, F] list_num_par=6 frozen=false iter=20000 energy=-1.26974174 Lattice="15.00000000 0.00000000 0.00000000 0.00000000 15.00000000 0.00000000 0.00000000 0.00000000 15.00000000" energy_frozen_part=0.00000000 Properties=species:S:1:pos:R:3:velocities:R:3:Z:I:1
H         7.04698033      10.32960762       8.55253884         0.00000000       0.00000000       0.00000000          1
H         8.05814167      11.37102524      10.93943469         0.00000000       0.00000000       0.00000000          1
H        10.01570827      12.75574186       9.50599017         0.00000000       0.00000000       0.00000000          1
H         7.31689383      13.09223487       8.86765515         0.00000000       0.00000000       0.00000000          1
H         9.00453915      11.71432378       7.11908651         0.00000000       0.00000000       0.00000000          1
H         9.74579027       9.99311446       9.19086559         0.00000000       0.00000000       0.00000000          1
6
pbc=[F, F, F] list_num_par=6 frozen=false iter=20000 energy=-1.26974174 Lattice="15.00000000 0.00000000 0.00000000 0.00000000 15.00000000 0.00000000 0.00000000 0.00000000 15.00000000" energy_frozen_part=0.00000000 Properties=species:S:1:pos:R:3:velocities:R:3:Z:I:1
H         7.04706300      10.32949091       8.55227100         0.00000000       0.00000000       0.00000000          1
H         8.05800208      11.37088770      10.93927490         0.00000000       0.00000000       0.00000000          1
H        10.01572994      12.75558441       9.50603182         0.00000000       0.00000000       0.00000000          1
H         7.31698399      13.09211427       8.86742813         0.00000000       0.00000000       0.00000000          1
H         9.00479735      11.71418872       7.11902730         0.00000000       0.00000000       0.00000000          1
H         9.74581112       9.99295546       9.19088070         0.00000000       0.00000000       0.00000000          1
6
pbc=[F, F, F] list_num_par=6 frozen=false iter=20000 energy=-1.26974174 Lattice="15.00000000 0.00000000 0.00000000 0.00000000 15.00000000 0.00000000 0.00000000 0.00000000 15.00000000" energy_frozen_part=0.00000000 Properties=species:S:1:pos:R:3:velocities:R:3:Z:I:1
H         7.04831452      10.32753873       8.55346589         0.00000000       0.00000000       0.00000000          1
H         8.05834395      11.37160896      10.93968927         0.00000000       0.00000000       0.00000000          1
H        10.01474282      12.75709259       9.50538789         0.00000000       0.00000000       0.00000000          1
H         7.31566802      13.09064163       8.86661820         0.00000000       0.00000000       0.00000000          1
H         9.00472129      11.71302905       7.11917040         0.00000000       0.00000000       0.00000000          1
H         9.74739024       9.99398637       9.19223907         0.00000000       0.00000000       0.00000000          1
6
pbc=[F, F, F] list_num_par=6 frozen=false iter=20000 energy=-1.26974174 Lattice="15.00000000 0.00000000 0.00000000 0.00000000 15.00000000 0.00000000 0.00000000 0.00000000 15.00000000" energy_frozen_part=0.00000000 Properties=species:S:1:pos:R:3:velocities:R:3:Z:I:1
H         7.04706690      10.32963810       8.55241639         0.00000000       0.00000000       0.00000000          1
H         8.05809254      11.37109052      10.93935812         0.00000000       0.00000000       0.00000000          1
H        10.01582838      12.75567146       9.50601427         0.00000000       0.00000000       0.00000000          1
H         7.31708462      13.09226925       8.86746606         0.00000000       0.00000000       0.00000000          1
H         9.00480090      11.71422401       7.11906547         0.00000000       0.00000000       0.00000000          1
H         9.74581156       9.99304510       9.19096400         0.00000000       0.00000000       0.00000000          1
6
pbc=[F, F, F] list_num_par=6 frozen=false iter=20000 energy=-1.26974174 Lattice="15.00000000 0.00000000 0.00000000 0.00000000 15.00000000 0.00000000 0.00000000 0.00000000 15.00000000" energy_frozen_part=0.00000000 Properties=species:S:1:pos:R:3:velocities:R:3:Z:I:1
H         7.04694547      10.32965622       8.55250852         0.00000000       0.00000000       0.00000000          1
H         8.05809606      11.37109957      10.93940387         0.00000000       0.00000000       0.00000000          1
H        10.01570025      12.75577380       9.50596420         0.00000000       0.00000000       0.00000000          1
H         7.31689874      13.09228940       8.86758560         0.00000000       0.00000000       0.00000000          1
H         9.00455722      11.71432254       7.11907478         0.00000000       0.00000000       0.00000000          1
H         9.74574962       9.99313547       9.19089040         0.00000000       0.00000000       0.00000000          1
6
pbc=[F, F, F] list_num_par=6 frozen=false iter=20000 energy=-1.26974174 Lattice="15.00000000 0.00000000 0.00000000 0.00000000 15.00000000 0.00000000 0.00000000 0.00000000 15.00000000" energy_frozen_part=0.00000000 Properties=species:S:1:pos:R:3:velocities:R:3:Z:I:1
H         7.04696040      10.32963444       8.55249700         0.00000000       0.00000000       0.00000000          1
H         8.05809431      11.37107661      10.93938761         0.00000000       0.00000000       0.00000000          1
H        10.01570307      12.75576114       9.50595580         0.00000000       0.00000000       0.00000000          1
H         7.31690314      13.09226895       8.86757769         0.00000000       0.00000000       0.00000000          1
H         9.00456238      11.71431738       7.11905929         0.00000000       0.00000000       0.00000000          1
H         9.74576210       9.99312801       9.19087123         0.00000000       0.00000000       0.00000000          1
6
pbc=[F, F, F] list_num_par=6 frozen=false iter=20000 energy=-1.26974174 Lattice="15.00000000 0.00000000 0.00000000 0.00000000 15.00000000 0.00000000 0.00000000 0.00000000 15.00000000" energy_frozen_part=0.00000000 Properties=species:S:1:pos:R:3:velocities:R:3:Z:I:1
H         7.04832544      10.32754387       8.55347149         0.00000000       0.00000000       0.00000000          1
H         8.05835847      11.37160345      10.93969237         0.00000000       0.00000000       0.00000000          1
H        10.01476900      12.75708597       9.50539800         0.00000000       0.00000000       0.00000000          1
H         7.31569484      13.09065331       8.86662815         0.00000000       0.00000000       0.00000000          1
H         9.00473274      11.71302709       7.11917614         0.00000000       0.00000000       0.00000000          1
H         9.74740313       9.99398588       9.19224043         0.00000000       0.00000000       0.00000000          1
6
pbc=[F, F, F] list_num_par=6 frozen=false iter=20000 energy=-1.26974174 Lattice="15.00000000 0.00000000 0.00000000 0.00000000 15.00000000 0.00000000 0.00000000 0.00000000 15.00000000" energy_frozen_part=0.00000000 Properties=species:S:1:pos:R:3:velocities:R:3:Z:I:1
H         7.04696974      10.32961935       8.55253234         0.00000000       0.00000000       0.00000000          1
H         8.05812972      11.37103852      10.93943415         0.00000000       0.00000000       0.00000000          1
H        10.01569741      12.75575184       9.50599127         0.00000000       0.00000000       0.00000000          1
H         7.31689095      13.09225416       8.86765077         0.00000000       0.00000000       0.00000000          1
H         9.00453480      11.71433162       7.11909021         0.00000000       0.00000000       0.00000000          1
H         9.74578025       9.99312197       9.19087152         0.00000000       0.00000000       0.00000000          1
6
pbc=[F, F, F] list_num_par=6 frozen=false iter=20000 energy=-1.26974174 Lattice="15.00000000 0.00000000 0.00000000 0.00000000 15.00000000 0.00000000 0.00000000 0.00000000 15.00000000" energy_frozen_part=0.00000000 Properties=species:S:1:pos:R:3:velocities:R:3:Z:I:1
H         7.04857358      10.32805871       8.55350092         0.00000000       0.00000000       0.00000000          1
H         8.05855686      11.37230053      10.93966206         0.00000000       0.00000000       0.00000000          1
H        10.01505514      12.75758621       9.50530848         0.00000000       0.00000000       0.00000000          1
H         7.31602193      13.09117774       8.86640958         0.00000000       0.00000000       0.00000000          1
H         9.00507803      11.71334714       7.11914718         0.00000000       0.00000000       0.00000000          1
H         9.74761210       9.99446408       9.19239836         0.00000000       0.00000000       0.00000000          1
6
pbc=[F, F, F] list_num_par=6 frozen=false iter=20000 energy=-1.26974174 Lattice="15.00000000 0.00000000 0.00000000 0.00000000 15.00000000 0.00000000 0.00000000 0.00000000 15.00000000" energy_frozen_part=0.00000000 Properties=species:S:1:pos:R:3:velocities:R:3:Z:I:1
H         6.92541505      10.08959819       9.13899621         0.00000000       0.00000000       0.00000000          1
H         8.27046596      11.50473062      11.13712350         0.00000000       0.00000000       0.00000000          1