6
pbc=[F, F, F] list_num_par=6 frozen=false iter=9 energy=38.80837987 Lattice="15.00000000 0.00000000 0.00000000 0.00000000 15.00000000 0.00000000 0.00000000 0.00000000 15.00000000" energy_frozen_part=0.00000000 Properties=species:S:1:pos:R:3:velocities:R:3:Z:I:1
H        10.16165809       8.91885033      11.19677963         0.00000000       0.00000000       0.00000000          1
H         5.30734483       5.95022425       9.45259423         0.00000000       0.00000000       0.00000000          1
H        10.03459672       4.64833128       1.48041772         0.00000000       0.00000000       0.00000000          1
H         6.84485806       3.55998363       9.52874727         0.00000000       0.00000000       0.00000000          1
H        14.71795982       5.10064733      12.19566229         0.00000000       0.00000000       0.00000000          1
H        14.53610729       6.71276895      12.67884140         0.00000000       0.00000000       0.00000000          1
6
pbc=[F, F, F] list_num_par=6 frozen=false iter=19 energy=0.19330867 Lattice="15.00000000 0.00000000 0.00000000 0.00000000 15.00000000 0.00000000 0.00000000 0.00000000 15.00000000" energy_frozen_part=0.00000000 Properties=species:S:1:pos:R:3:velocities:R:3:Z:I:1
H        12.93628200       5.18159327      10.65334693         0.00000000       0.00000000       0.00000000          1
H        10.46270101       0.79009763       9.39312988         0.00000000       0.00000000       0.00000000          1
H        10.23604145       5.92173774       7.82917944         0.00000000       0.00000000       0.00000000          1
H         0.11322650       7.86337865      13.51526985         0.00000000       0.00000000       0.00000000          1
H        10.09646465       2.52172929      10.93911102         0.00000000       0.00000000       0.00000000          1
H         4.85259709       0.19838556       0.14130252         0.00000000       0.00000000       0.00000000          1
6
pbc=[F, F, F] list_num_par=6 frozen=false iter=29 energy=-0.00531922 Lattice="15.00000000 0.00000000 0.00000000 0.00000000 15.00000000 0.00000000 0.00000000 0.00000000 15.00000000" energy_frozen_part=0.00000000 Properties=species:S:1:pos:R:3:velocities:R:3:Z:I:1
H         7.45013179       8.35006684       3.01227377         0.00000000       0.00000000       0.00000000          1
H        14.45772597      12.65743809       8.27809643         0.00000000       0.00000000       0.00000000          1
H        11.22824162       4.12722377       5.46471221         0.00000000       0.00000000       0.00000000          1
H         2.30000069       0.77256858       8.94972549         0.00000000       0.00000000       0.00000000          1
H        10.02976767      13.05035597       0.47446850         0.00000000       0.00000000       0.00000000          1
H         8.07966266      13.81876225       9.28021420         0.00000000       0.00000000       0.00000000          1
6
pbc=[F, F, F] list_num_par=6 frozen=false iter=39 energy=-0.00907283 Lattice="15.00000000 0.00000000 0.00000000 0.00000000 15.00000000 0.00000000 0.00000000 0.00000000 15.00000000" energy_frozen_part=0.00000000 Properties=species:S:1:pos:R:3:velocities:R:3:Z:I:1
H        13.81640137       3.19498455       5.73493678         0.00000000       0.00000000       0.00000000          1
H         7.83089304       6.10544995       1.72237012         0.00000000       0.00000000       0.00000000          1
H         0.06155878       0.45776073       3.46111478         0.00000000       0.00000000       0.00000000          1
H         9.71662525       8.15553088       8.55260759         0.00000000       0.00000000       0.00000000          1
H         5.16914001       8.89058306      10.54390792         0.00000000       0.00000000       0.00000000          1
H         6.03438262       0.11105936       6.51890674         0.00000000       0.00000000       0.00000000          1
6
pbc=[F, F, F] list_num_par=6 frozen=false iter=49 energy=-0.01168086 Lattice="15.00000000 0.00000000 0.00000000 0.00000000 15.00000000 0.00000000 0.00000000 0.00000000 15.00000000" energy_frozen_part=0.00000000 Properties=species:S:1:pos:R:3:velocities:R:3:Z:I:1
H         0.21362274      11.42362164       0.70255813         0.00000000       0.00000000       0.00000000          1
H         0.45268543       9.64811293       5.85560997         0.00000000       0.00000000       0.00000000          1
H        12.57255497       2.14641205      11.26814817         0.00000000       0.00000000       0.00000000          1
H        12.30961174       5.79145791      14.37155106         0.00000000       0.00000000       0.00000000          1
H         8.72508642      11.74799845       4.79639451         0.00000000       0.00000000       0.00000000          1
H         2.67374881       1.92044008       2.82617669         0.00000000       0.00000000       0.00000000          1
6
pbc=[F, F, F] list_num_par=6 frozen=false iter=59 energy=-0.01384300 Lattice="15.00000000 0.00000000 0.00000000 0.00000000 15.00000000 0.00000000 0.00000000 0.00000000 15.00000000" energy_frozen_part=0.00000000 Properties=species:S:1:pos:R:3:velocities:R:3:Z:I:1
H         0.31217409       8.09233073       8.99084341         0.00000000       0.00000000       0.00000000          1
H         7.47325748       9.18704017       7.08913554         0.00000000       0.00000000       0.00000000          1
H         2.90325001      10.92479523      14.59380541         0.00000000       0.00000000       0.00000000          1
H        11.56284121       6.61908431      12.45175433         0.00000000       0.00000000       0.00000000          1
H         7.99163803       3.26512744       6.97682180         0.00000000       0.00000000       0.00000000          1
H         6.31985911      13.71440848       7.63113247         0.00000000       0.00000000       0.00000000          1
6
pbc=[F, F, F] list_num_par=6 frozen=false iter=69 energy=-0.01666380 Lattice="15.00000000 0.00000000 0.00000000 0.00000000 15.00000000 0.00000000 0.00000000 0.00000000 15.00000000" energy_frozen_part=0.00000000 Properties=species:S:1:pos:R:3:velocities:R:3:Z:I:1
H        10.80269326      10.65965039      14.16362019         0.00000000       0.00000000       0.00000000          1
H         4.50885397       8.94269883      12.81414260         0.00000000       0.00000000       0.00000000          1
H         0.25252910       6.08200535      14.37624797         0.00000000       0.00000000       0.00000000          1
H        10.69239223       6.22835032      12.63180931         0.00000000       0.00000000       0.00000000          1
H         5.89534016      11.44896753       3.67359170         0.00000000       0.00000000       0.00000000          1
H         7.56329431       1.68450555       9.84825924         0.00000000       0.00000000       0.00000000          1
6
pbc=[F, F, F] list_num_par=6 frozen=false iter=79 energy=-0.01906101 Lattice="15.00000000 0.00000000 0.00000000 0.00000000 15.00000000 0.00000000 0.00000000 0.00000000 15.00000000" energy_frozen_part=0.00000000 Properties=species:S:1:pos:R:3:velocities:R:3:Z:I:1
H         0.96899151       6.11048380       0.51340737         0.00000000       0.00000000       0.00000000          1
H         0.39952336       7.70872481       6.15883967         0.00000000       0.00000000       0.00000000          1
H         2.43557014      12.02384831       3.56905324         0.00000000       0.00000000       0.00000000          1
H         8.49999859      13.52275748      12.16463553         0.00000000       0.00000000       0.00000000          1
H         4.95547734       7.47548332       7.22616581         0.00000000       0.00000000       0.00000000          1
H         3.29696381       3.70271470      12.22405502         0.00000000       0.00000000       0.00000000          1
6
pbc=[F, F, F] list_num_par=6 frozen=false iter=89 energy=-0.02142178 Lattice="15.00000000 0.00000000 0.00000000 0.00000000 15.00000000 0.00000000 0.00000000 0.00000000 15.00000000" energy_frozen_part=0.00000000 Properties=species:S:1:pos:R:3:velocities:R:3:Z:I:1
H        11.66270535      10.26827965       9.38282101         0.00000000       0.00000000       0.00000000          1
H        10.19317333       7.65822290       5.38363798         0.00000000       0.00000000       0.00000000          1
H         4.70687915      13.13550569       2.01201880         0.00000000       0.00000000       0.00000000          1
H         5.76653855       5.07645809       8.38661554         0.00000000       0.00000000       0.00000000          1
H        14.78287209       6.52241420       5.77777858         0.00000000       0.00000000       0.00000000          1
H        12.84734594       9.51118623      14.96172657         0.00000000       0.00000000       0.00000000          1
6
pbc=[F, F, F] list_num_par=6 frozen=false iter=99 energy=-0.02748275 Lattice="15.00000000 0.00000000 0.00000000 0.00000000 15.00000000 0.00000000 0.00000000 0.00000000 15.00000000" energy_frozen_part=0.00000000 Properties=species:S:1:pos:R:3:velocities:R:3:Z:I:1
H        12.98262445      14.76313766       1.76587398         0.00000000       0.00000000       0.00000000          1
H         2.52288009       8.50985265      13.42844195         0.00000000       0.00000000       0.00000000          1
H         6.48440121      13.58838718       6.96598670         0.00000000       0.00000000       0.00000000          1
H        11.77344909       9.32430710       2.21183773         0.00000000       0.00000000       0.00000000          1
H        11.44485103      14.91857519      12.50476770         0.00000000       0.00000000       0.00000000          1
H         6.94442556       9.66171153       6.25341035         0.00000000       0.00000000       0.00000000          1
6
pbc=[F, F, F] list_num_par=6 frozen=false iter=109 energy=-0.03494186 Lattice="15.00000000 0.00000000 0.00000000 0.00000000 15.00000000 0.00000000 0.00000000 0.00000000 15.00000000" energy_frozen_part=0.00000000 Properties=species:S:1:pos:R:3:velocities:R:3:Z:I:1
H         0.38317944      13.32253780       4.99146067         0.00000000       0.00000000       0.00000000          1
H        10.68166234       9.08548160       0.94881376         0.00000000       0.00000000       0.00000000          1
H        10.09420073      14.96200909       1.90032655         0.00000000       0.00000000       0.00000000          1
H         6.70228031       1.06016764      11.39335890         0.00000000       0.00000000       0.00000000          1
H         5.36060532       3.26071186       5.36115428         0.00000000       0.00000000       0.00000000          1
H        13.44081359       6.54428437       1.15805628         0.00000000       0.00000000       0.00000000          1
6
pbc=[F, F, F] list_num_par=6 frozen=false iter=119 energy=-0.04022723 Lattice="15.00000000 0.00000000 0.00000000 0.00000000 15.00000000 0.00000000 0.00000000 0.00000000 15.00000000" energy_frozen_part=0.00000000 Properties=species:S:1:pos:R:3:velocities:R:3:Z:I:1
H        13.92750253       2.58771357       2.96297148         0.00000000       0.00000000       0.00000000          1
H         6.17304914       5.15766720      10.58662275         0.00000000       0.00000000       0.00000000          1
H        12.86169374      13.14141454       3.83637869         0.00000000       0.00000000       0.00000000          1
H         8.32253589       8.55158454      11.68502806         0.00000000       0.00000000       0.00000000          1
H        13.30864324       6.27686019       4.69157906         0.00000000       0.00000000       0.00000000          1
H        12.67234816      10.43003891      14.89639107         0.00000000       0.00000000       0.00000000          1
6
pbc=[F, F, F] list_num_par=6 frozen=false iter=129 energy=-0.04454892 Lattice="15.00000000 0.00000000 0.00000000 0.00000000 15.00000000 0.00000000 0.00000000 0.00000000 15.00000000" energy_frozen_part=0.00000000 Properties=species:S:1:pos:R:3:velocities:R:3:Z:I:1
H         0.53334194       4.25219520       4.27480570         0.00000000       0.00000000       0.00000000          1
H         5.90052186       6.57204481       0.91850937         0.00000000       0.00000000       0.00000000          1
H         8.90598015      11.71498369       0.54425449         0.00000000       0.00000000       0.00000000          1
H        11.88853433       4.57033280       7.39683897         0.00000000       0.00000000       0.00000000          1
H         2.37201998       2.83207125       0.63697979         0.00000000       0.00000000       0.00000000          1
H        12.55389980       4.70499847       3.42019697         0.00000000       0.00000000       0.00000000          1
6
pbc=[F, F, F] list_num_par=6 frozen=false iter=139 energy=-0.05081027 Lattice="15.00000000 0.00000000 0.00000000 0.00000000 15.00000000 0.00000000 0.00000000 0.00000000 15.00000000" energy_frozen_part=0.00000000 Properties=species:S:1:pos:R:3:velocities:R:3:Z:I:1
H         9.05787776      12.91847362       3.89373214         0.00000000       0.00000000       0.00000000          1
H         5.00460155       2.10500639       8.74196625         0.00000000       0.00000000       0.00000000          1
H         9.15357359      11.22895301       7.38101443         0.00000000       0.00000000       0.00000000          1
H        10.58906852       3.23049565       9.28186685         0.00000000       0.00000000       0.00000000          1
H         0.12128197      11.90588638       2.68743623         0.00000000       0.00000000       0.00000000          1
H        12.45475111      13.23417846       1.68716145         0.00000000       0.00000000       0.00000000          1
6
pbc=[F, F, F] list_num_par=6 frozen=false iter=149 energy=-0.05883810 Lattice="15.00000000 0.00000000 0.00000000 0.00000000 15.00000000 0.00000000 0.00000000 0.00000000 15.00000000" energy_frozen_part=0.00000000 Properties=species:S:1:pos:R:3:velocities:R:3:Z:I:1
H        12.99970319       1.80072085       9.53311731         0.00000000       0.00000000       0.00000000          1
H        10.02669296       1.03954115       5.29129249         0.00000000       0.00000000       0.00000000          1
H         4.53358969       8.14095921      14.33855266         0.00000000       0.00000000       0.00000000          1
H         7.51664432       4.64852085       7.85061970         0.00000000       0.00000000       0.00000000          1
H        13.16557723      14.50640912       9.27277587         0.00000000       0.00000000       0.00000000          1
H        10.36895211       4.76046477       4.67713727         0.00000000       0.00000000       0.00000000          1
6
pbc=[F, F, F] list_num_par=6 frozen=false iter=159 energy=-0.06215227 Lattice="15.00000000 0.00000000 0.00000000 0.00000000 15.00000000 0.00000000 0.00000000 0.00000000 15.00000000" energy_frozen_part=0.00000000 Properties=species:S:1:pos:R:3:velocities:R:3:Z:I:1
H         9.02856744       2.47750618      12.09204734         0.00000000       0.00000000       0.00000000          1
H        14.32496592       3.26513618       5.65083345         0.00000000       0.00000000       0.00000000          1
H         4.03469028       5.00831866       3.09017983         0.00000000       0.00000000       0.00000000          1
H        10.77482232       4.62245642      14.75127513         0.00000000       0.00000000       0.00000000          1
H         7.56840889       6.70627299      14.80222702         0.00000000       0.00000000       0.00000000          1
H         3.58187007      12.36379364       2.46470629         0.00000000       0.00000000       0.00000000          1
6
pbc=[F, F, F] list_num_par=6 frozen=false iter=169 energy=-0.06889594 Lattice="15.00000000 0.00000000 0.00000000 0.00000000 15.00000000 0.00000000 0.00000000 0.00000000 15.00000000" energy_frozen_part=0.00000000 Properties=species:S:1:pos:R:3:velocities:R:3:Z:I:1
H         7.35763917      14.50765299       5.62132188         0.00000000       0.00000000       0.00000000          1
H        14.47411005       1.19019302      10.65658897         0.00000000       0.00000000       0.00000000          1
H         7.00999682      12.96035413       2.79458097         0.00000000       0.00000000       0.00000000          1
H         9.42048067       6.32890495       2.21378530         0.00000000       0.00000000       0.00000000          1
H         1.69926143      12.28346020      12.08114003         0.00000000       0.00000000       0.00000000          1
H        11.76964481       9.33465484       8.12277049         0.00000000       0.00000000       0.00000000          1
6
pbc=[F, F, F] list_num_par=6 frozen=false iter=179 energy=-0.07292722 Lattice="15.00000000 0.00000000 0.00000000 0.00000000 15.00000000 0.00000000 0.00000000 0.00000000 15.00000000" energy_frozen_part=0.00000000 Properties=species:S:1:pos:R:3:velocities:R:3:Z:I:1
H         8.86355400       6.13041897       8.85503032         0.00000000       0.00000000       0.00000000          1
H        12.08815851      12.65252898       1.98265847         0.00000000       0.00000000       0.00000000          1
H         9.09636003      13.08722311       0.99009671         0.00000000       0.00000000       0.00000000          1
H         8.85078422       1.26348869      13.48798866         0.00000000       0.00000000       0.00000000          1
H         0.61063520       8.21045292       2.95722233         0.00000000       0.00000000       0.00000000          1
H         0.02494346       4.27726499      11.59337330         0.00000000       0.00000000       0.00000000          1
6
pbc=[F, F, F] list_num_par=6 frozen=false iter=189 energy=-0.07528245 Lattice="15.00000000 0.00000000 0.00000000 0.00000000 15.00000000 0.00000000 0.00000000 0.00000000 15.00000000" energy_frozen_part=0.00000000 Properties=species:S:1:pos:R:3:velocities:R:3:Z:I:1
H         1.07955743      13.95320230       9.20064917         0.00000000       0.00000000       0.00000000          1
H         3.95332454       8.69847570       1.36453507         0.00000000       0.00000000       0.00000000          1
H         0.30905252       7.99516472       5.21126198         0.00000000       0.00000000       0.00000000          1
H        11.02678466       7.09477247       7.28996003         0.00000000       0.00000000       0.00000000          1
H        13.77055772      12.40159940      13.65246510         0.00000000       0.00000000       0.00000000          1
H        12.91217139       7.14594269       5.48507744         0.00000000       0.00000000       0.00000000          1
6
pbc=[F, F, F] list_num_par=6 frozen=false iter=199 energy=-0.08059511 Lattice="15.00000000 0.00000000 0.00000000 0.00000000 15.00000000 0.00000000 0.00000000 0.00000000 15.00000000" energy_frozen_part=0.00000000 Properties=species:S:1:pos:R:3:velocities:R:3:Z:I:1
H         7.68434797      13.02803660       0.76846308         0.00000000       0.00000000       0.00000000          1
H         6.50811488      10.20923987       1.99262091         0.00000000       0.00000000       0.00000000          1
H         1.19775341       9.43741370       4.15366686         0.00000000       0.00000000       0.00000000          1
H         4.63792403       5.23443430       4.27703090         0.00000000       0.00000000       0.00000000          1
H         7.79810436       9.89701297       6.77183305         0.00000000       0.00000000       0.00000000          1
H        14.02429009       1.25597640       5.67144557         0.00000000       0.00000000       0.00000000          1
6
pbc=[F, F, F] list_num_par=6 frozen=false iter=209 energy=-0.08769416 Lattice="15.00000000 0.00000000 0.00000000 0.00000000 15.00000000 0.00000000 0.00000000 0.00000000 15.00000000" energy_frozen_part=0.00000000 Properties=species:S:1:pos:R:3:velocities:R:3:Z:I:1
H        10.13269868       3.83110494      12.66042505         0.00000000       0.00000000       0.00000000          1
H         8.69558710       8.24119830       1.00488007         0.00000000       0.00000000       0.00000000          1
H        12.82819972       4.43132394      11.44793681         0.00000000       0.00000000       0.00000000          1
H        10.17944406      13.75744026      13.06901508         0.00000000       0.00000000       0.00000000          1
H         0.89491058       4.54168878       3.83128949         0.00000000       0.00000000       0.00000000          1
H         0.85476418       3.17287384      14.52618815         0.00000000       0.00000000       0.00000000          1
6
pbc=[F, F, F] list_num_par=6 frozen=false iter=219 energy=-0.09055801 Lattice="15.00000000 0.00000000 0.00000000 0.00000000 15.00000000 0.00000000 0.00000000 0.00000000 15.00000000" energy_frozen_part=0.00000000 Properties=species:S:1:pos:R:3:velocities:R:3:Z:I:1
H         5.41449390      14.66834808       6.95730102         0.00000000       0.00000000       0.00000000          1
H         0.48673324      11.46484678       6.71096888         0.00000000       0.00000000       0.00000000          1
H         8.26334882      14.64059506       5.60324660         0.00000000       0.00000000       0.00000000          1
H         7.46692259       2.01836244       3.41760220         0.00000000       0.00000000       0.00000000          1
H        10.94854718       4.82556916       6.01664525         0.00000000       0.00000000       0.00000000          1
H        12.57029939      12.74596615       4.89561724         0.00000000       0.00000000       0.00000000          1
6
pbc=[F, F, F] list_num_par=6 frozen=false iter=229 energy=-0.09368917 Lattice="15.00000000 0.00000000 0.00000000 0.00000000 15.00000000 0.00000000 0.00000000 0.00000000 15.00000000" energy_frozen_part=0.00000000 Properties=species:S:1:pos:R:3:velocities:R:3:Z:I:1
H        11.65614015       5.31410542      10.63383017         0.00000000       0.00000000       0.00000000          1
H        14.94148758       3.73741434       2.57211618         0.00000000       0.00000000       0.00000000          1
H        13.40339154      11.40213369       4.41599116         0.00000000       0.00000000       0.00000000          1
H        12.95278049       1.43387052      11.13804501         0.00000000       0.00000000       0.00000000          1
H         8.86828923       6.14745730       9.04100679         0.00000000       0.00000000       0.00000000          1
H         9.20353922      10.72277868       6.68478796         0.00000000       0.00000000       0.00000000          1
6
pbc=[F, F, F] list_num_par=6 frozen=false iter=239 energy=-0.09828877 Lattice="15.00000000 0.00000000 0.00000000 0.00000000 15.00000000 0.00000000 0.00000000 0.00000000 15.00000000" energy_frozen_part=0.00000000 Properties=species:S:1:pos:R:3:velocities:R:3:Z:I:1
H        10.71021089      14.70430388       7.20965975         0.00000000       0.00000000       0.00000000          1
H         0.72523616      14.44515700       0.47148114         0.00000000       0.00000000       0.00000000          1
H        11.76477312      13.33548183       9.60764256         0.00000000       0.00000000       0.00000000          1
H         4.19931452       5.57213312       6.05578112         0.00000000       0.00000000       0.00000000          1
H         8.06975233       2.13633347       6.81073337         0.00000000       0.00000000       0.00000000          1
H         8.08672981       0.55648499      13.39347586         0.00000000       0.00000000       0.00000000          1
6
pbc=[F, F, F] list_num_par=6 frozen=false iter=249 energy=-0.10001697 Lattice="15.00000000 0.00000000 0.00000000 0.00000000 15.00000000 0.00000000 0.00000000 0.00000000 15.00000000" energy_frozen_part=0.00000000 Properties=species:S:1:pos:R:3:velocities:R:3:Z:I:1
H         2.88386796      11.65379010       8.58940311         0.00000000       0.00000000       0.00000000          1
H         5.46544487       0.92711359      12.83418277         0.00000000       0.00000000       0.00000000          1
H         1.11407824      12.37414302       0.82590967         0.00000000       0.00000000       0.00000000          1
H         7.75106304       1.38001002       2.39627461         0.00000000       0.00000000       0.00000000          1
H         9.30471163       3.11600386       0.86683755         0.00000000       0.00000000       0.00000000          1
H        11.47834484      12.56813209       1.70542953         0.00000000       0.00000000       0.00000000          1
6
pbc=[F, F, F] list_num_par=6 frozen=false iter=259 energy=-0.10139638 Lattice="15.00000000 0.00000000 0.00000000 0.00000000 15.00000000 0.00000000 0.00000000 0.00000000 15.00000000" energy_frozen_part=0.00000000 Properties=species:S:1:pos:R:3:velocities:R:3:Z:I:1
H         4.86304594       7.45385083       8.57222360         0.00000000       0.00000000       0.00000000          1
H         1.23177435      13.18853473       9.05765991         0.00000000       0.00000000       0.00000000          1
H        10.62591979      14.95313785       3.66089995         0.00000000       0.00000000       0.00000000          1
H         0.33394591       0.81084022      10.87401408         0.00000000       0.00000000       0.00000000          1
H        11.63711783       5.12938917       3.49442589         0.00000000       0.00000000       0.00000000          1
H        11.57051834       7.33151353       1.74362965         0.00000000       0.00000000       0.00000000          1
6
pbc=[F, F, F] list_num_par=6 frozen=false iter=269 energy=-0.10359876 Lattice="15.00000000 0.00000000 0.00000000 0.00000000 15.00000000 0.00000000 0.00000000 0.00000000 15.00000000" energy_frozen_part=0.00000000 Properties=species:S:1:pos:R:3:velocities:R:3:Z:I:1
H        11.12482860       3.33212259       5.09331247         0.00000000       0.00000000       0.00000000          1
H         6.02429346       5.93107863       6.30970159         0.00000000       0.00000000       0.00000000          1
H         3.01241544       0.06624463       6.44144397         0.00000000       0.00000000       0.00000000          1
H        10.37188769      13.49101847       2.79972038         0.00000000       0.00000000       0.00000000          1
H         4.63652422       8.30677812      14.41703459         0.00000000       0.00000000       0.00000000          1
H         8.52982242      14.52318363       0.95786465         0.00000000       0.00000000       0.00000000          1
6
pbc=[F, F, F] list_num_par=6 frozen=false iter=279 energy=-0.10572145 Lattice="15.00000000 0.00000000 0.00000000 0.00000000 15.00000000 0.00000000 0.00000000 0.00000000 15.00000000" energy_frozen_part=0.00000000 Properties=species:S:1:pos:R:3:velocities:R:3:Z:I:1
H        14.17307809      14.77649355       9.03726816         0.00000000       0.00000000       0.00000000          1
H         2.87581274       6.67515444       4.63367257         0.00000000       0.00000000       0.00000000          1
H        10.94573372      10.67015905       8.60045622         0.00000000       0.00000000       0.00000000          1
H         4.67965605       9.30269638       9.81250197         0.00000000       0.00000000       0.00000000          1
H         3.45800327      10.17185804      14.36950041         0.00000000       0.00000000       0.00000000          1
H         8.45969196       9.89922503      10.59759968         0.00000000       0.00000000       0.00000000          1
6
pbc=[F, F, F] list_num_par=6 frozen=false iter=289 energy=-0.10852250 Lattice="15.00000000 0.00000000 0.00000000 0.00000000 15.00000000 0.00000000 0.00000000 0.00000000 15.00000000" energy_frozen_part=0.00000000 Properties=species:S:1:pos:R:3:velocities:R:3:Z:I:1
H        11.00213236      10.56144749       7.85420260         0.00000000       0.00000000       0.00000000          1
H        11.28139740      13.29950908       6.73042497         0.00000000       0.00000000       0.00000000          1
H        12.81017915       7.38163411       0.99819015         0.00000000       0.00000000       0.00000000          1
H        14.87546560      10.09081767      13.85064703         0.00000000       0.00000000       0.00000000          1
H        13.90526046       7.22637296       7.86894178         0.00000000       0.00000000       0.00000000          1
H         6.81286616      12.88495838       0.27491707         0.00000000       0.00000000       0.00000000          1
6
pbc=[F, F, F] list_num_par=6 frozen=false iter=299 energy=-0.11242145 Lattice="15.00000000 0.00000000 0.00000000 0.00000000 15.00000000 0.00000000 0.00000000 0.00000000 15.00000000" energy_frozen_part=0.00000000 Properties=species:S:1:pos:R:3:velocities:R:3:Z:I:1
H        12.46783166       5.01823038      14.82410497         0.00000000       0.00000000       0.00000000          1
H        14.68099695       4.10390531       0.83169639         0.00000000       0.00000000       0.00000000          1
H        12.96095033      12.62434276       9.78501230         0.00000000       0.00000000       0.00000000          1
H        14.03280566      10.26474210       1.71509837         0.00000000       0.00000000       0.00000000          1
H        10.09619739       9.21195625       6.17897545         0.00000000       0.00000000       0.00000000          1
H        14.37442665      11.72798311       4.07437053         0.00000000       0.00000000       0.00000000          1
6
pbc=[F, F, F] list_num_par=6 frozen=false iter=309 energy=-0.11438802 Lattice="15.00000000 0.00000000 0.00000000 0.00000000 15.00000000 0.00000000 0.00000000 0.00000000 15.00000000" energy_frozen_part=0.00000000 Properties=species:S:1:pos:R:3:velocities:R:3:Z:I:1
H         9.01574281       6.37999895      14.69726087         0.00000000       0.00000000       0.00000000          1
H         5.52837454       0.39631434       1.88952832         0.00000000       0.00000000       0.00000000          1