15
Lattice="5.612310241546866 0.0 0.0 0.0 4.860403243099165 0.0 0.0 0.0 44.58243212332868" Properties=species:S:1:pos:R:3:tags:I:1:masses:R:1:momenta:R:3:forces:R:3:stresses:R:6:energies:R:1 KEmax=3.877798651747746 iter=-1 volume=1216.1236359717223 ns_energy=-0.07422734500841732 energy=-7.499667374858847 stress="0.0031253556056934587 -6.199316531302074e-06 -6.977433470659177e-05 -6.199316531302074e-06 0.0032120440660728536 7.0239483369353164e-06 -6.977433470659177e-05 7.0239483369353164e-06 0.0020831094454899506" free_energy=-7.499667374858847 pbc="T T F"
H        1.40307756       0.81006721       0.00000000        3       1.00000000       0.00000000       0.00000000       0.00000000       0.00000000      -0.00000000       0.12854089       0.00021116       0.00021116       0.00016004       0.00000000      -0.00000000       0.00000000      -0.55102189
H        4.20923268       0.81006721       0.00000000        3       1.00000000       0.00000000       0.00000000       0.00000000      -0.00000000      -0.00000000       0.12854089       0.00021116       0.00021116       0.00016004       0.00000000      -0.00000000      -0.00000000      -0.55102189
H        0.00000000       3.24026883       0.00000000        3       1.00000000       0.00000000       0.00000000       0.00000000       0.00000000       0.00000000       0.12854089       0.00021116       0.00021116       0.00016004       0.00000000      -0.00000000      -0.00000000      -0.55102189
H        2.80615512       3.24026883       0.00000000        3       1.00000000       0.00000000       0.00000000       0.00000000       0.00000000       0.00000000       0.12854089       0.00021116       0.00021116       0.00016004       0.00000000       0.00000000      -0.00000000      -0.55102189
H        0.00000000       1.62013441       2.29121606        2       1.00000000       0.00000000       0.00000000       0.00000000       0.00000000       0.00000000      -0.00000000       0.00030841       0.00030841       0.00016427       0.00000000       0.00000000       0.00000000      -0.74135253
H        2.80615512       1.62013441       2.29121606        2       1.00000000       0.00000000       0.00000000       0.00000000       0.00000000       0.00000000      -0.00000000       0.00030841       0.00030841       0.00016427       0.00000000       0.00000000       0.00000000      -0.74135253
H        1.40307756       4.05033604       2.29121606        2       1.00000000       0.00000000       0.00000000       0.00000000       0.00000000      -0.00000000      -0.00000000       0.00030841       0.00030841       0.00016427      -0.00000000      -0.00000000       0.00000000      -0.74135253
H        4.20923268       4.05033604       2.29121606        2       1.00000000       0.00000000       0.00000000       0.00000000      -0.00000000      -0.00000000      -0.00000000       0.00030841       0.00030841       0.00016427       0.00000000      -0.00000000       0.00000000      -0.74135253
H        0.00000000       0.00000000       4.58243212        1       1.00000000       0.00000000       0.00000000       0.00000000      -0.00006365      -0.00000070      -0.12601374       0.00021246       0.00021220       0.00016616      -0.00000000      -0.00000015      -0.00000000      -0.55164508
H        2.80615512       0.00000000       4.58243212        1       1.00000000       0.00000000       0.00000000       0.00000000       0.00023656       0.00000627      -0.12609983       0.00021121       0.00021216       0.00016595       0.00000002       0.00000057       0.00000000      -0.55189216
H        1.40307756       2.43020162       4.58243212        1       1.00000000       0.00000000       0.00000000       0.00000000       0.00011448      -0.00003833      -0.12635191       0.00021217       0.00021116       0.00016534      -0.00000009       0.00000028      -0.00000000      -0.55176003
H        4.20923268       2.43020162       4.58243212        1       1.00000000       0.00000000       0.00000000       0.00000000      -0.00030666      -0.00003802      -0.12636980       0.00021126       0.00021116       0.00016530      -0.00000009      -0.00000074       0.00000001      -0.55184145
H        0.30494558       3.48438035      21.39422621        0       1.00000000       0.00000000       0.00000000       0.00000000      -0.04573406       0.00483509       0.06597348       0.00008953       0.00012371       0.00005026       0.00000368      -0.00003484      -0.00000311      -0.05531814
H        1.23154692       0.23400892      21.89158346        0       1.00000000       0.00000000       0.00000000       0.00000000       0.04573406      -0.00483509      -0.06597348       0.00008953       0.00012371       0.00005026       0.00000368      -0.00003484      -0.00000311      -0.05531814
H        3.95849063       4.62917933      11.06935672        0       1.00000000       0.00000000       0.00000000       0.00000000       0.00001927       0.00007077      -0.00932828       0.00002094       0.00003970       0.00002260      -0.00000017      -0.00000005       0.00000001      -0.01239469
15
Lattice="5.612310241546866 0.0 0.0 0.0 4.860403243099165 0.0 0.0 0.0 44.58243212332868" Properties=species:S:1:pos:R:3:tags:I:1:masses:R:1:momenta:R:3:forces:R:3:stresses:R:6:energies:R:1 KEmax=3.877798651747746 iter=-1 volume=1216.1236359717223 ns_energy=-7.4132362168432815 energy=-7.499667374858847 stress="0.0031253556056934587 -6.199316531302074e-06 -6.977433470659177e-05 -6.199316531302074e-06 0.0032120440660728536 7.0239483369353164e-06 -6.977433470659177e-05 7.0239483369353164e-06 0.0020831094454899506" free_energy=-7.499667374858847 pbc="T T F"
H        1.40307756       0.81006721       0.00000000        3       1.00000000       0.00000000       0.00000000       0.00000000       0.00000000      -0.00000000       0.12854089       0.00021116       0.00021116       0.00016004       0.00000000      -0.00000000       0.00000000      -0.55102189
H        4.20923268       0.81006721       0.00000000        3       1.00000000       0.00000000       0.00000000       0.00000000      -0.00000000      -0.00000000       0.12854089       0.00021116       0.00021116       0.00016004       0.00000000      -0.00000000      -0.00000000      -0.55102189
H        0.00000000       3.24026883       0.00000000        3       1.00000000       0.00000000       0.00000000       0.00000000       0.00000000       0.00000000       0.12854089       0.00021116       0.00021116       0.00016004       0.00000000      -0.00000000      -0.00000000      -0.55102189
H        2.80615512       3.24026883       0.00000000        3       1.00000000       0.00000000       0.00000000       0.00000000       0.00000000       0.00000000       0.12854089       0.00021116       0.00021116       0.00016004       0.00000000       0.00000000      -0.00000000      -0.55102189
H        0.00000000       1.62013441       2.29121606        2       1.00000000       0.00000000       0.00000000       0.00000000       0.00000000       0.00000000      -0.00000000       0.00030841       0.00030841       0.00016427       0.00000000       0.00000000       0.00000000      -0.74135253
H        2.80615512       1.62013441       2.29121606        2       1.00000000       0.00000000       0.00000000       0.00000000       0.00000000       0.00000000      -0.00000000       0.00030841       0.00030841       0.00016427       0.00000000       0.00000000       0.00000000      -0.74135253
H        1.40307756       4.05033604       2.29121606        2       1.00000000       0.00000000       0.00000000       0.00000000       0.00000000      -0.00000000      -0.00000000       0.00030841       0.00030841       0.00016427      -0.00000000      -0.00000000       0.00000000      -0.74135253
H        4.20923268       4.05033604       2.29121606        2       1.00000000       0.00000000       0.00000000       0.00000000      -0.00000000      -0.00000000      -0.00000000       0.00030841       0.00030841       0.00016427       0.00000000      -0.00000000       0.00000000      -0.74135253
H        0.00000000       0.00000000       4.58243212        1       1.00000000       0.00000000       0.00000000       0.00000000      -0.00006365      -0.00000070      -0.12601374       0.00021246       0.00021220       0.00016616      -0.00000000      -0.00000015      -0.00000000      -0.55164508
H        2.80615512       0.00000000       4.58243212        1       1.00000000       0.00000000       0.00000000       0.00000000       0.00023656       0.00000627      -0.12609983       0.00021121       0.00021216       0.00016595       0.00000002       0.00000057       0.00000000      -0.55189216
H        1.40307756       2.43020162       4.58243212        1       1.00000000       0.00000000       0.00000000       0.00000000       0.00011448      -0.00003833      -0.12635191       0.00021217       0.00021116       0.00016534      -0.00000009       0.00000028      -0.00000000      -0.55176003
H        4.20923268       2.43020162       4.58243212        1       1.00000000       0.00000000       0.00000000       0.00000000      -0.00030666      -0.00003802      -0.12636980       0.00021126       0.00021116       0.00016530      -0.00000009      -0.00000074       0.00000001      -0.55184145
H        3.60533928       3.96199253      27.50644583        0       1.00000000       0.00000000       0.00000000       0.00000000      -0.04573406       0.00483509       0.06597348       0.00008953       0.00012371       0.00005026       0.00000368      -0.00003484      -0.00000311      -0.05531814
H        0.66632827       4.76335795      10.11801735        0       1.00000000       0.00000000       0.00000000       0.00000000       0.04573406      -0.00483509      -0.06597348       0.00008953       0.00012371       0.00005026       0.00000368      -0.00003484      -0.00000311      -0.05531814
H        0.60135421       0.60750590      16.17537307        0       1.00000000       0.00000000       0.00000000       0.00000000       0.00001927       0.00007077      -0.00932828       0.00002094       0.00003970       0.00002260      -0.00000017      -0.00000005       0.00000001      -0.01239469
15
Lattice="5.612310241546866 0.0 0.0 0.0 4.860403243099165 0.0 0.0 0.0 44.58243212332868" Properties=species:S:1:pos:R:3:tags:I:1:masses:R:1:momenta:R:3:forces:R:3:stresses:R:6:energies:R:1 KEmax=3.877798651747746 iter=-1 volume=1216.1236359717223 ns_energy=0.7170576174597301 energy=-7.499667374858847 stress="0.0031253556056934587 -6.199316531302074e-06 -6.977433470659177e-05 -6.199316531302074e-06 0.0032120440660728536 7.0239483369353164e-06 -6.977433470659177e-05 7.0239483369353164e-06 0.0020831094454899506" free_energy=-7.499667374858847 pbc="T T F"
H        1.40307756       0.81006721       0.00000000        3       1.00000000       0.00000000       0.00000000       0.00000000       0.00000000      -0.00000000       0.12854089       0.00021116       0.00021116       0.00016004       0.00000000      -0.00000000       0.00000000      -0.55102189
H        4.20923268       0.81006721       0.00000000        3       1.00000000       0.00000000       0.00000000       0.00000000      -0.00000000      -0.00000000       0.12854089       0.00021116       0.00021116       0.00016004       0.00000000      -0.00000000      -0.00000000      -0.55102189
H        0.00000000       3.24026883       0.00000000        3       1.00000000       0.00000000       0.00000000       0.00000000       0.00000000       0.00000000       0.12854089       0.00021116       0.00021116       0.00016004       0.00000000      -0.00000000      -0.00000000      -0.55102189
H        2.80615512       3.24026883       0.00000000        3       1.00000000       0.00000000       0.00000000       0.00000000       0.00000000       0.00000000       0.12854089       0.00021116       0.00021116       0.00016004       0.00000000       0.00000000      -0.00000000      -0.55102189
H        0.00000000       1.62013441       2.29121606        2       1.00000000       0.00000000       0.00000000       0.00000000       0.00000000       0.00000000      -0.00000000       0.00030841       0.00030841       0.00016427       0.00000000       0.00000000       0.00000000      -0.74135253
H        2.80615512       1.62013441       2.29121606        2       1.00000000       0.00000000       0.00000000       0.00000000       0.00000000       0.00000000      -0.00000000       0.00030841       0.00030841       0.00016427       0.00000000       0.00000000       0.00000000      -0.74135253
H        1.40307756       4.05033604       2.29121606        2       1.00000000       0.00000000       0.00000000       0.00000000       0.00000000      -0.00000000      -0.00000000       0.00030841       0.00030841       0.00016427      -0.00000000      -0.00000000       0.00000000      -0.74135253
H        4.20923268       4.05033604       2.29121606        2       1.00000000       0.00000000       0.00000000       0.00000000      -0.00000000      -0.00000000      -0.00000000       0.00030841       0.00030841       0.00016427       0.00000000      -0.00000000       0.00000000      -0.74135253
H        0.00000000       0.00000000       4.58243212        1       1.00000000       0.00000000       0.00000000       0.00000000      -0.00006365      -0.00000070      -0.12601374       0.00021246       0.00021220       0.00016616      -0.00000000      -0.00000015      -0.00000000      -0.55164508
H        2.80615512       0.00000000       4.58243212        1       1.00000000       0.00000000       0.00000000       0.00000000       0.00023656       0.00000627      -0.12609983       0.00021121       0.00021216       0.00016595       0.00000002       0.00000057       0.00000000      -0.55189216
H        1.40307756       2.43020162       4.58243212        1       1.00000000       0.00000000       0.00000000       0.00000000       0.00011448      -0.00003833      -0.12635191       0.00021217       0.00021116       0.00016534      -0.00000009       0.00000028      -0.00000000      -0.55176003
H        4.20923268       2.43020162       4.58243212        1       1.00000000       0.00000000       0.00000000       0.00000000      -0.00030666      -0.00003802      -0.12636980       0.00021126       0.00021116       0.00016530      -0.00000009      -0.00000074       0.00000001      -0.55184145
H        5.35707391       2.62447401      27.12599460        0       1.00000000       0.00000000       0.00000000       0.00000000      -0.04573406       0.00483509       0.06597348       0.00008953       0.00012371       0.00005026       0.00000368      -0.00003484      -0.00000311      -0.05531814
H        0.80422288       2.41349606      23.15259159        0       1.00000000       0.00000000       0.00000000       0.00000000       0.04573406      -0.00483509      -0.06597348       0.00008953       0.00012371       0.00005026       0.00000368      -0.00003484      -0.00000311      -0.05531814
H        4.59186980       2.56583717      23.68852697        0       1.00000000       0.00000000       0.00000000       0.00000000       0.00001927       0.00007077      -0.00932828       0.00002094       0.00003970       0.00002260      -0.00000017      -0.00000005       0.00000001      -0.01239469
15
Lattice="5.612310241546866 0.0 0.0 0.0 4.860403243099165 0.0 0.0 0.0 44.58243212332868" Properties=species:S:1:pos:R:3:tags:I:1:masses:R:1:momenta:R:3:forces:R:3:stresses:R:6:energies:R:1 KEmax=3.877798651747746 iter=-1 volume=1216.1236359717223 ns_energy=-6.930224830397344 energy=-7.499667374858847 stress="0.0031253556056934587 -6.199316531302074e-06 -6.977433470659177e-05 -6.199316531302074e-06 0.0032120440660728536 7.0239483369353164e-06 -6.977433470659177e-05 7.0239483369353164e-06 0.0020831094454899506" free_energy=-7.499667374858847 pbc="T T F"
H        1.40307756       0.81006721       0.00000000        3       1.00000000       0.00000000       0.00000000       0.00000000       0.00000000      -0.00000000       0.12854089       0.00021116       0.00021116       0.00016004       0.00000000      -0.00000000       0.00000000      -0.55102189
H        4.20923268       0.81006721       0.00000000        3       1.00000000       0.00000000       0.00000000       0.00000000      -0.00000000      -0.00000000       0.12854089       0.00021116       0.00021116       0.00016004       0.00000000      -0.00000000      -0.00000000      -0.55102189
H        0.00000000       3.24026883       0.00000000        3       1.00000000       0.00000000       0.00000000       0.00000000       0.00000000       0.00000000       0.12854089       0.00021116       0.00021116       0.00016004       0.00000000      -0.00000000      -0.00000000      -0.55102189
H        2.80615512       3.24026883       0.00000000        3       1.00000000       0.00000000       0.00000000       0.00000000       0.00000000       0.00000000       0.12854089       0.00021116       0.00021116       0.00016004       0.00000000       0.00000000      -0.00000000      -0.55102189
H        0.00000000       1.62013441       2.29121606        2       1.00000000       0.00000000       0.00000000       0.00000000       0.00000000       0.00000000      -0.00000000       0.00030841       0.00030841       0.00016427       0.00000000       0.00000000       0.00000000      -0.74135253
H        2.80615512       1.62013441       2.29121606        2       1.00000000       0.00000000       0.00000000       0.00000000       0.00000000       0.00000000      -0.00000000       0.00030841       0.00030841       0.00016427       0.00000000       0.00000000       0.00000000      -0.74135253
H        1.40307756       4.05033604       2.29121606        2       1.00000000       0.00000000       0.00000000       0.00000000       0.00000000      -0.00000000      -0.00000000       0.00030841       0.00030841       0.00016427      -0.00000000      -0.00000000       0.00000000      -0.74135253
H        4.20923268       4.05033604       2.29121606        2       1.00000000       0.00000000       0.00000000       0.00000000      -0.00000000      -0.00000000      -0.00000000       0.00030841       0.00030841       0.00016427       0.00000000      -0.00000000       0.00000000      -0.74135253
H        0.00000000       0.00000000       4.58243212        1       1.00000000       0.00000000       0.00000000       0.00000000      -0.00006365      -0.00000070      -0.12601374       0.00021246       0.00021220       0.00016616      -0.00000000      -0.00000015      -0.00000000      -0.55164508
H        2.80615512       0.00000000       4.58243212        1       1.00000000       0.00000000       0.00000000       0.00000000       0.00023656       0.00000627      -0.12609983       0.00021121       0.00021216       0.00016595       0.00000002       0.00000057       0.00000000      -0.55189216
H        1.40307756       2.43020162       4.58243212        1       1.00000000       0.00000000       0.00000000       0.00000000       0.00011448      -0.00003833      -0.12635191       0.00021217       0.00021116       0.00016534      -0.00000009       0.00000028      -0.00000000      -0.55176003
H        4.20923268       2.43020162       4.58243212        1       1.00000000       0.00000000       0.00000000       0.00000000      -0.00030666      -0.00003802      -0.12636980       0.00021126       0.00021116       0.00016530      -0.00000009      -0.00000074       0.00000001      -0.55184145
H        1.20005368       3.24694861      10.43481473        0       1.00000000       0.00000000       0.00000000       0.00000000      -0.04573406       0.00483509       0.06597348       0.00008953       0.00012371       0.00005026       0.00000368      -0.00003484      -0.00000311      -0.05531814
H        1.03050922       3.90196357      16.10322988        0       1.00000000       0.00000000       0.00000000       0.00000000       0.04573406      -0.00483509      -0.06597348       0.00008953       0.00012371       0.00005026       0.00000368      -0.00003484      -0.00000311      -0.05531814
H        1.10147560       0.59783243      10.91542283        0       1.00000000       0.00000000       0.00000000       0.00000000       0.00001927       0.00007077      -0.00932828       0.00002094       0.00003970       0.00002260      -0.00000017      -0.00000005       0.00000001      -0.01239469
15
Lattice="5.612310241546866 0.0 0.0 0.0 4.860403243099165 0.0 0.0 0.0 44.58243212332868" Properties=species:S:1:pos:R:3:tags:I:1:masses:R:1:momenta:R:3:forces:R:3:stresses:R:6:energies:R:1 KEmax=3.877798651747746 iter=-1 volume=1216.1236359717223 ns_energy=-7.512048992202062 energy=-7.499667374858847 stress="0.0031253556056934587 -6.199316531302074e-06 -6.977433470659177e-05 -6.199316531302074e-06 0.0032120440660728536 7.0239483369353164e-06 -6.977433470659177e-05 7.0239483369353164e-06 0.0020831094454899506" free_energy=-7.499667374858847 pbc="T T F"
H        1.40307756       0.81006721       0.00000000        3       1.00000000       0.00000000       0.00000000       0.00000000       0.00000000      -0.00000000       0.12854089       0.00021116       0.00021116       0.00016004       0.00000000      -0.00000000       0.00000000      -0.55102189
H        4.20923268       0.81006721       0.00000000        3       1.00000000       0.00000000       0.00000000       0.00000000      -0.00000000      -0.00000000       0.12854089       0.00021116       0.00021116       0.00016004       0.00000000      -0.00000000      -0.00000000      -0.55102189
H        0.00000000       3.24026883       0.00000000        3       1.00000000       0.00000000       0.00000000       0.00000000       0.00000000       0.00000000       0.12854089       0.00021116       0.00021116       0.00016004       0.00000000      -0.00000000      -0.00000000      -0.55102189
H        2.80615512       3.24026883       0.00000000        3       1.00000000       0.00000000       0.00000000       0.00000000       0.00000000       0.00000000       0.12854089       0.00021116       0.00021116       0.00016004       0.00000000       0.00000000      -0.00000000      -0.55102189
H        0.00000000       1.62013441       2.29121606        2       1.00000000       0.00000000       0.00000000       0.00000000       0.00000000       0.00000000      -0.00000000       0.00030841       0.00030841       0.00016427       0.00000000       0.00000000       0.00000000      -0.74135253
H        2.80615512       1.62013441       2.29121606        2       1.00000000       0.00000000       0.00000000       0.00000000       0.00000000       0.00000000      -0.00000000       0.00030841       0.00030841       0.00016427       0.00000000       0.00000000       0.00000000      -0.74135253
H        1.40307756       4.05033604       2.29121606        2       1.00000000       0.00000000       0.00000000       0.00000000       0.00000000      -0.00000000      -0.00000000       0.00030841       0.00030841       0.00016427      -0.00000000      -0.00000000       0.00000000      -0.74135253
H        4.20923268       4.05033604       2.29121606        2       1.00000000       0.00000000       0.00000000       0.00000000      -0.00000000      -0.00000000      -0.00000000       0.00030841       0.00030841       0.00016427       0.00000000      -0.00000000       0.00000000      -0.74135253
H        0.00000000       0.00000000       4.58243212        1       1.00000000       0.00000000       0.00000000       0.00000000      -0.00006365      -0.00000070      -0.12601374       0.00021246       0.00021220       0.00016616      -0.00000000      -0.00000015      -0.00000000      -0.55164508
H        2.80615512       0.00000000       4.58243212        1       1.00000000       0.00000000       0.00000000       0.00000000       0.00023656       0.00000627      -0.12609983       0.00021121       0.00021216       0.00016595       0.00000002       0.00000057       0.00000000      -0.55189216
H        1.40307756       2.43020162       4.58243212        1       1.00000000       0.00000000       0.00000000       0.00000000       0.00011448      -0.00003833      -0.12635191       0.00021217       0.00021116       0.00016534      -0.00000009       0.00000028      -0.00000000      -0.55176003
H        4.20923268       2.43020162       4.58243212        1       1.00000000       0.00000000       0.00000000       0.00000000      -0.00030666      -0.00003802      -0.12636980       0.00021126       0.00021116       0.00016530      -0.00000009      -0.00000074       0.00000001      -0.55184145
H        2.36849321       4.12901343      15.82244799        0       1.00000000       0.00000000       0.00000000       0.00000000      -0.04573406       0.00483509       0.06597348       0.00008953       0.00012371       0.00005026       0.00000368      -0.00003484      -0.00000311      -0.05531814
H        3.12786742       1.96675808       9.44257331        0       1.00000000       0.00000000       0.00000000       0.00000000       0.04573406      -0.00483509      -0.06597348       0.00008953       0.00012371       0.00005026       0.00000368      -0.00003484      -0.00000311      -0.05531814
H        4.21551615       3.84423743      12.69915848        0       1.00000000       0.00000000       0.00000000       0.00000000       0.00001927       0.00007077      -0.00932828       0.00002094       0.00003970       0.00002260      -0.00000017      -0.00000005       0.00000001      -0.01239469
15
Lattice="5.612310241546866 0.0 0.0 0.0 4.860403243099165 0.0 0.0 0.0 44.58243212332868" Properties=species:S:1:pos:R:3:tags:I:1:masses:R:1:momenta:R:3:forces:R:3:stresses:R:6:energies:R:1 KEmax=3.877798651747746 iter=-1 volume=1216.1236359717223 ns_energy=-7.418246860922167 energy=-7.499667374858847 stress="0.0031253556056934587 -6.199316531302074e-06 -6.977433470659177e-05 -6.199316531302074e-06 0.0032120440660728536 7.0239483369353164e-06 -6.977433470659177e-05 7.0239483369353164e-06 0.0020831094454899506" free_energy=-7.499667374858847 pbc="T T F"
H        1.40307756       0.81006721       0.00000000        3       1.00000000       0.00000000       0.00000000       0.00000000       0.00000000      -0.00000000       0.12854089       0.00021116       0.00021116       0.00016004       0.00000000      -0.00000000       0.00000000      -0.55102189
H        4.20923268       0.81006721       0.00000000        3       1.00000000       0.00000000       0.00000000       0.00000000      -0.00000000      -0.00000000       0.12854089       0.00021116       0.00021116       0.00016004       0.00000000      -0.00000000      -0.00000000      -0.55102189
H        0.00000000       3.24026883       0.00000000        3       1.00000000       0.00000000       0.00000000       0.00000000       0.00000000       0.00000000       0.12854089       0.00021116       0.00021116       0.00016004       0.00000000      -0.00000000      -0.00000000      -0.55102189
H        2.80615512       3.24026883       0.00000000        3       1.00000000       0.00000000       0.00000000       0.00000000       0.00000000       0.00000000       0.12854089       0.00021116       0.00021116       0.00016004       0.00000000       0.00000000      -0.00000000      -0.55102189
H        0.00000000       1.62013441       2.29121606        2       1.00000000       0.00000000       0.00000000       0.00000000       0.00000000       0.00000000      -0.00000000       0.00030841       0.00030841       0.00016427       0.00000000       0.00000000       0.00000000      -0.74135253
H        2.80615512       1.62013441       2.29121606        2       1.00000000       0.00000000       0.00000000       0.00000000       0.00000000       0.00000000      -0.00000000       0.00030841       0.00030841       0.00016427       0.00000000       0.00000000       0.00000000      -0.74135253
H        1.40307756       4.05033604       2.29121606        2       1.00000000       0.00000000       0.00000000       0.00000000       0.00000000      -0.00000000      -0.00000000       0.00030841       0.00030841       0.00016427      -0.00000000      -0.00000000       0.00000000      -0.74135253
H        4.20923268       4.05033604       2.29121606        2       1.00000000       0.00000000       0.00000000       0.00000000      -0.00000000      -0.00000000      -0.00000000       0.00030841       0.00030841       0.00016427       0.00000000      -0.00000000       0.00000000      -0.74135253
H        0.00000000       0.00000000       4.58243212        1       1.00000000       0.00000000       0.00000000       0.00000000      -0.00006365      -0.00000070      -0.12601374       0.00021246       0.00021220       0.00016616      -0.00000000      -0.00000015      -0.00000000      -0.55164508
H        2.80615512       0.00000000       4.58243212        1       1.00000000       0.00000000       0.00000000       0.00000000       0.00023656       0.00000627      -0.12609983       0.00021121       0.00021216       0.00016595       0.00000002       0.00000057       0.00000000      -0.55189216
H        1.40307756       2.43020162       4.58243212        1       1.00000000       0.00000000       0.00000000       0.00000000       0.00011448      -0.00003833      -0.12635191       0.00021217       0.00021116       0.00016534      -0.00000009       0.00000028      -0.00000000      -0.55176003
H        4.20923268       2.43020162       4.58243212        1       1.00000000       0.00000000       0.00000000       0.00000000      -0.00030666      -0.00003802      -0.12636980       0.00021126       0.00021116       0.00016530      -0.00000009      -0.00000074       0.00000001      -0.55184145
H        0.66802804       1.30128237      30.80359676        0       1.00000000       0.00000000       0.00000000       0.00000000      -0.04573406       0.00483509       0.06597348       0.00008953       0.00012371       0.00005026       0.00000368      -0.00003484      -0.00000311      -0.05531814