6
pbc=[F, F, F] list_num_par=6 frozen=false iter=9 energy=17.28495469 Lattice="15.00000000 0.00000000 0.00000000 0.00000000 15.00000000 0.00000000 0.00000000 0.00000000 15.00000000" energy_frozen_part=0.00000000 Properties=species:S:1:pos:R:3:velocities:R:3:Z:I:1
H         0.38041480       9.42843393      11.60578251         0.00000000       0.00000000       0.00000000          1
H        12.95786025       2.64427939       1.34587138         0.00000000       0.00000000       0.00000000          1
H        14.84392888       7.46780705      11.25039249         0.00000000       0.00000000       0.00000000          1
H        10.95627389      14.37110628       1.80865443         0.00000000       0.00000000       0.00000000          1
H         9.92437281      13.51829590       0.60024874         0.00000000       0.00000000       0.00000000          1
H         0.42115530      11.89932768      14.80510829         0.00000000       0.00000000       0.00000000          1
6
pbc=[F, F, F] list_num_par=6 frozen=false iter=19 energy=2.60632495 Lattice="15.00000000 0.00000000 0.00000000 0.00000000 15.00000000 0.00000000 0.00000000 0.00000000 15.00000000" energy_frozen_part=0.00000000 Properties=species:S:1:pos:R:3:velocities:R:3:Z:I:1
H         3.76051648       8.24714172       3.51372571         0.00000000       0.00000000       0.00000000          1
H         3.09758726       9.57217923      11.78003925         0.00000000       0.00000000       0.00000000          1
H         9.24771939       0.27049082       5.52526563         0.00000000       0.00000000       0.00000000          1
H         0.43406544      14.21012390       0.74573832         0.00000000       0.00000000       0.00000000          1
H         2.48338624       9.56383032       4.47307728         0.00000000       0.00000000       0.00000000          1
H         7.91303273      14.79057711       3.73016343         0.00000000       0.00000000       0.00000000          1
6
pbc=[F, F, F] list_num_par=6 frozen=false iter=29 energy=0.03816416 Lattice="15.00000000 0.00000000 0.00000000 0.00000000 15.00000000 0.00000000 0.00000000 0.00000000 15.00000000" energy_frozen_part=0.00000000 Properties=species:S:1:pos:R:3:velocities:R:3:Z:I:1
H         3.24287160       4.08715296      10.12127347         0.00000000       0.00000000       0.00000000          1
H        12.60250227       0.75196116       8.67009022         0.00000000       0.00000000       0.00000000          1
H        14.70449228       6.28158368       4.47430751         0.00000000       0.00000000       0.00000000          1
H        13.08639765      11.78813571       0.77280753         0.00000000       0.00000000       0.00000000          1
H         8.73615295      10.25558458      11.70302612         0.00000000       0.00000000       0.00000000          1
H        13.63213308       0.15158461       6.51457284         0.00000000       0.00000000       0.00000000          1
6
pbc=[F, F, F] list_num_par=6 frozen=false iter=39 energy=-0.00355083 Lattice="15.00000000 0.00000000 0.00000000 0.00000000 15.00000000 0.00000000 0.00000000 0.00000000 15.00000000" energy_frozen_part=0.00000000 Properties=species:S:1:pos:R:3:velocities:R:3:Z:I:1
H         9.87606100      10.68623779      12.78050296         0.00000000       0.00000000       0.00000000          1
H         4.88886413      11.52965650       8.48131103         0.00000000       0.00000000       0.00000000          1
H        10.45653743       7.84335359       0.59231242         0.00000000       0.00000000       0.00000000          1
H         1.00612278       2.60983072      14.14990093         0.00000000       0.00000000       0.00000000          1
H        12.46476053      12.98128542       2.32712765         0.00000000       0.00000000       0.00000000          1
H        13.94353506       2.57132546       8.81461888         0.00000000       0.00000000       0.00000000          1
6
pbc=[F, F, F] list_num_par=6 frozen=false iter=49 energy=-0.00575010 Lattice="15.00000000 0.00000000 0.00000000 0.00000000 15.00000000 0.00000000 0.00000000 0.00000000 15.00000000" energy_frozen_part=0.00000000 Properties=species:S:1:pos:R:3:velocities:R:3:Z:I:1
H         0.17944525       0.70015895       2.58769469         0.00000000       0.00000000       0.00000000          1
H        11.31248419       0.32506956      13.12272884         0.00000000       0.00000000       0.00000000          1
H         1.90313677      10.53548488       1.94151917         0.00000000       0.00000000       0.00000000          1
H         3.57068738       4.67394247      11.97456854         0.00000000       0.00000000       0.00000000          1
H        10.38572101       9.09860245       9.05116853         0.00000000       0.00000000       0.00000000          1
H         4.38430133       3.38000273       1.31623985         0.00000000       0.00000000       0.00000000          1
6
pbc=[F, F, F] list_num_par=6 frozen=false iter=59 energy=-0.00881720 Lattice="15.00000000 0.00000000 0.00000000 0.00000000 15.00000000 0.00000000 0.00000000 0.00000000 15.00000000" energy_frozen_part=0.00000000 Properties=species:S:1:pos:R:3:velocities:R:3:Z:I:1
H        14.50310742      12.09926948       1.53954214         0.00000000       0.00000000       0.00000000          1
H        13.82412002       3.99617465       0.07401925         0.00000000       0.00000000       0.00000000          1
H         2.19319022       9.70846981      14.30043493         0.00000000       0.00000000       0.00000000          1
H        10.61323774      10.87194120       7.57804882         0.00000000       0.00000000       0.00000000          1
H         8.90657877       5.42944134      11.40947169         0.00000000       0.00000000       0.00000000          1
H         7.76722863       6.46463049       6.11487982         0.00000000       0.00000000       0.00000000          1
6
pbc=[F, F, F] list_num_par=6 frozen=false iter=69 energy=-0.01328143 Lattice="15.00000000 0.00000000 0.00000000 0.00000000 15.00000000 0.00000000 0.00000000 0.00000000 15.00000000" energy_frozen_part=0.00000000 Properties=species:S:1:pos:R:3:velocities:R:3:Z:I:1
H         7.83471832       3.75704812      12.01677117         0.00000000       0.00000000       0.00000000          1
H         7.09086063       8.12913040       9.33998126         0.00000000       0.00000000       0.00000000          1
H        12.05201174       5.01209057       9.06462661         0.00000000       0.00000000       0.00000000          1
H         1.57882741       3.67679374      14.54908369         0.00000000       0.00000000       0.00000000          1
H        10.67320368       6.95515800       0.92606068         0.00000000       0.00000000       0.00000000          1
H         3.71204045      12.49946896      14.30343755         0.00000000       0.00000000       0.00000000          1
6
pbc=[F, F, F] list_num_par=6 frozen=false iter=79 energy=-0.01658390 Lattice="15.00000000 0.00000000 0.00000000 0.00000000 15.00000000 0.00000000 0.00000000 0.00000000 15.00000000" energy_frozen_part=0.00000000 Properties=species:S:1:pos:R:3:velocities:R:3:Z:I:1
H         7.70615120      12.71577421       8.86560591         0.00000000       0.00000000       0.00000000          1
H        12.51680074       6.18318950       0.09135689         0.00000000       0.00000000       0.00000000          1
H         7.29052120      12.74769852       3.05484848         0.00000000       0.00000000       0.00000000          1
H         5.98146011       8.45104923      13.97709407         0.00000000       0.00000000       0.00000000          1
H         8.81354988       2.74682806      10.94217860         0.00000000       0.00000000       0.00000000          1
H         8.74815464       5.54098285       2.38211335         0.00000000       0.00000000       0.00000000          1
6
pbc=[F, F, F] list_num_par=6 frozen=false iter=89 energy=-0.02041636 Lattice="15.00000000 0.00000000 0.00000000 0.00000000 15.00000000 0.00000000 0.00000000 0.00000000 15.00000000" energy_frozen_part=0.00000000 Properties=species:S:1:pos:R:3:velocities:R:3:Z:I:1
H        11.97331444       1.14809754       5.89764170         0.00000000       0.00000000       0.00000000          1
H         1.16763570       6.38278422       5.44154725         0.00000000       0.00000000       0.00000000          1
H         4.54892294       4.17340678       0.81003585         0.00000000       0.00000000       0.00000000          1
H         5.25462275       3.06915336      12.61410228         0.00000000       0.00000000       0.00000000          1
H         7.47422779      10.40486202      12.72086998         0.00000000       0.00000000       0.00000000          1
H        14.02934723       0.13805462       2.44027116         0.00000000       0.00000000       0.00000000          1
6
pbc=[F, F, F] list_num_par=6 frozen=false iter=99 energy=-0.02545551 Lattice="15.00000000 0.00000000 0.00000000 0.00000000 15.00000000 0.00000000 0.00000000 0.00000000 15.00000000" energy_frozen_part=0.00000000 Properties=species:S:1:pos:R:3:velocities:R:3:Z:I:1
H         4.94228565       4.50077625      12.52955849         0.00000000       0.00000000       0.00000000          1
H         5.78167974      13.65978052       3.17526443         0.00000000       0.00000000       0.00000000          1
H        13.67969991       0.16549536      12.82422582         0.00000000       0.00000000       0.00000000          1
H         0.87980703       2.93225682      13.24384087         0.00000000       0.00000000       0.00000000          1
H         9.57949353      10.95285455       3.31813401         0.00000000       0.00000000       0.00000000          1
H         0.17954766       8.74042797      12.70563892         0.00000000       0.00000000       0.00000000          1
6
pbc=[F, F, F] list_num_par=6 frozen=false iter=109 energy=-0.03060644 Lattice="15.00000000 0.00000000 0.00000000 0.00000000 15.00000000 0.00000000 0.00000000 0.00000000 15.00000000" energy_frozen_part=0.00000000 Properties=species:S:1:pos:R:3:velocities:R:3:Z:I:1
H         8.32671680       8.91848335      11.73775841         0.00000000       0.00000000       0.00000000          1
H         4.35506254       7.76980877      13.65729105         0.00000000       0.00000000       0.00000000          1
H         3.37763329       9.62121081       3.42250867         0.00000000       0.00000000       0.00000000          1
H         7.34197011      13.20531650       4.01163076         0.00000000       0.00000000       0.00000000          1
H         4.41621810       3.88053126       6.32605756         0.00000000       0.00000000       0.00000000          1
H         2.66919178       1.65910498       9.61528717         0.00000000       0.00000000       0.00000000          1
6
pbc=[F, F, F] list_num_par=6 frozen=false iter=119 energy=-0.03457725 Lattice="15.00000000 0.00000000 0.00000000 0.00000000 15.00000000 0.00000000 0.00000000 0.00000000 15.00000000" energy_frozen_part=0.00000000 Properties=species:S:1:pos:R:3:velocities:R:3:Z:I:1
H         7.69826156       2.18779811       8.15267100         0.00000000       0.00000000       0.00000000          1
H         1.04208075       2.30098620       4.44683350         0.00000000       0.00000000       0.00000000          1
H        13.32291949       5.56576073      13.01783946         0.00000000       0.00000000       0.00000000          1
H        11.37625491       0.41413550       4.75314050         0.00000000       0.00000000       0.00000000          1
H        11.01007848       9.24445267       9.54027347         0.00000000       0.00000000       0.00000000          1
H        10.65233606       2.45908755      11.54264681         0.00000000       0.00000000       0.00000000          1
6
pbc=[F, F, F] list_num_par=6 frozen=false iter=129 energy=-0.03944160 Lattice="15.00000000 0.00000000 0.00000000 0.00000000 15.00000000 0.00000000 0.00000000 0.00000000 15.00000000" energy_frozen_part=0.00000000 Properties=species:S:1:pos:R:3:velocities:R:3:Z:I:1
H         1.36192205       6.94588705       7.39223859         0.00000000       0.00000000       0.00000000          1
H        10.60150345       6.10873375       6.57268652         0.00000000       0.00000000       0.00000000          1
H        10.74076112       3.99885345       2.26101385         0.00000000       0.00000000       0.00000000          1
H        11.20919613      10.40614087       6.42121994         0.00000000       0.00000000       0.00000000          1
H        12.12501811       0.06480958       2.95483311         0.00000000       0.00000000       0.00000000          1
H         9.97860454      12.54957166      13.48381609         0.00000000       0.00000000       0.00000000          1
6
pbc=[F, F, F] list_num_par=6 frozen=false iter=139 energy=-0.04479616 Lattice="15.00000000 0.00000000 0.00000000 0.00000000 15.00000000 0.00000000 0.00000000 0.00000000 15.00000000" energy_frozen_part=0.00000000 Properties=species:S:1:pos:R:3:velocities:R:3:Z:I:1
H        10.84166039       4.79804154       7.90982366         0.00000000       0.00000000       0.00000000          1
H         1.94870640       8.50460627      12.27573655         0.00000000       0.00000000       0.00000000          1
H        13.51696457       7.09895853       6.11002835         0.00000000       0.00000000       0.00000000          1
H         6.43557645      10.38199164       6.62866410         0.00000000       0.00000000       0.00000000          1
H         5.85468601      10.39770089      11.59064302         0.00000000       0.00000000       0.00000000          1
H        14.27655752      14.01105264       9.12753588         0.00000000       0.00000000       0.00000000          1
6
pbc=[F, F, F] list_num_par=6 frozen=false iter=149 energy=-0.04998574 Lattice="15.00000000 0.00000000 0.00000000 0.00000000 15.00000000 0.00000000 0.00000000 0.00000000 15.00000000" energy_frozen_part=0.00000000 Properties=species:S:1:pos:R:3:velocities:R:3:Z:I:1
H        13.21583635       1.75519445       6.86249329         0.00000000       0.00000000       0.00000000          1
H        14.52365734       8.27995102      13.90621594         0.00000000       0.00000000       0.00000000          1
H        14.03552947       9.78867239       9.46303336         0.00000000       0.00000000       0.00000000          1
H        10.10531168       0.33297808       5.67847595         0.00000000       0.00000000       0.00000000          1
H         4.97962874      10.58120875      12.79218901         0.00000000       0.00000000       0.00000000          1
H         8.99803322       3.80189245      11.75839878         0.00000000       0.00000000       0.00000000          1
6
pbc=[F, F, F] list_num_par=6 frozen=false iter=159 energy=-0.05696354 Lattice="15.00000000 0.00000000 0.00000000 0.00000000 15.00000000 0.00000000 0.00000000 0.00000000 15.00000000" energy_frozen_part=0.00000000 Properties=species:S:1:pos:R:3:velocities:R:3:Z:I:1
H         8.30393358       8.05974794      13.99216975         0.00000000       0.00000000       0.00000000          1
H        10.74741977       9.77699252      12.39052674         0.00000000       0.00000000       0.00000000          1
H        14.09132439      13.52667671       9.58815115         0.00000000       0.00000000       0.00000000          1
H         0.62492620       5.62273327      10.55973347         0.00000000       0.00000000       0.00000000          1
H         8.10493684       1.53091403       7.71880068         0.00000000       0.00000000       0.00000000          1
H         0.35893873      14.61087107       7.54974362         0.00000000       0.00000000       0.00000000          1
6
pbc=[F, F, F] list_num_par=6 frozen=false iter=169 energy=-0.06131414 Lattice="15.00000000 0.00000000 0.00000000 0.00000000 15.00000000 0.00000000 0.00000000 0.00000000 15.00000000" energy_frozen_part=0.00000000 Properties=species:S:1:pos:R:3:velocities:R:3:Z:I:1
H         8.67378130       3.66715727      12.28750349         0.00000000       0.00000000       0.00000000          1
H         7.69269811       6.30344846       7.21104279         0.00000000       0.00000000       0.00000000          1
H         9.40075378       6.94496603      10.72800304         0.00000000       0.00000000       0.00000000          1
H         1.29262256       2.99443443      13.58837143         0.00000000       0.00000000       0.00000000          1
H        10.42954472       9.24696556       0.61362531         0.00000000       0.00000000       0.00000000          1
H         2.74005679      11.86175658      13.68177740         0.00000000       0.00000000       0.00000000          1
6
pbc=[F, F, F] list_num_par=6 frozen=false iter=179 energy=-0.06707936 Lattice="15.00000000 0.00000000 0.00000000 0.00000000 15.00000000 0.00000000 0.00000000 0.00000000 15.00000000" energy_frozen_part=0.00000000 Properties=species:S:1:pos:R:3:velocities:R:3:Z:I:1
H         4.74288882       6.04667350       2.76673104         0.00000000       0.00000000       0.00000000          1
H         9.55533717       1.91234362      13.81813298         0.00000000       0.00000000       0.00000000          1
H         6.83325052       1.12156586      12.16738335         0.00000000       0.00000000       0.00000000          1
H         1.07950204       1.56156243       0.44443306         0.00000000       0.00000000       0.00000000          1
H        14.34417693       6.46576305       4.91512387         0.00000000       0.00000000       0.00000000          1
H         2.55189506       0.99867377       7.43604301         0.00000000       0.00000000       0.00000000          1
6
pbc=[F, F, F] list_num_par=6 frozen=false iter=189 energy=-0.07431860 Lattice="15.00000000 0.00000000 0.00000000 0.00000000 15.00000000 0.00000000 0.00000000 0.00000000 15.00000000" energy_frozen_part=0.00000000 Properties=species:S:1:pos:R:3:velocities:R:3:Z:I:1
H        12.05487895       0.01731405      14.43882793         0.00000000       0.00000000       0.00000000          1
H         6.03512860       0.81593376       1.72294910         0.00000000       0.00000000       0.00000000          1
H         2.42683157       2.73848906      11.61960911         0.00000000       0.00000000       0.00000000          1
H         0.09006712       2.05559608       0.56938364         0.00000000       0.00000000       0.00000000          1
H        10.91986519       0.94900419      11.62413088         0.00000000       0.00000000       0.00000000          1
H         7.99804502      10.72288935      13.72292342         0.00000000       0.00000000       0.00000000          1
6
pbc=[F, F, F] list_num_par=6 frozen=false iter=199 energy=-0.08197037 Lattice="15.00000000 0.00000000 0.00000000 0.00000000 15.00000000 0.00000000 0.00000000 0.00000000 15.00000000" energy_frozen_part=0.00000000 Properties=species:S:1:pos:R:3:velocities:R:3:Z:I:1
H        12.77432144       4.51024098      13.67579818         0.00000000       0.00000000       0.00000000          1
H        12.33245466      14.12580204      11.20823476         0.00000000       0.00000000       0.00000000          1
H         3.65466774       5.91062644      10.16014842         0.00000000       0.00000000       0.00000000          1
H         2.18251676       2.05079707       1.44827439         0.00000000       0.00000000       0.00000000          1
H        12.01109464       1.07933668      13.84670008         0.00000000       0.00000000       0.00000000          1
H         0.46743130       4.27595675       3.78616309         0.00000000       0.00000000       0.00000000          1
6
pbc=[F, F, F] list_num_par=6 frozen=false iter=209 energy=-0.08860884 Lattice="15.00000000 0.00000000 0.00000000 0.00000000 15.00000000 0.00000000 0.00000000 0.00000000 15.00000000" energy_frozen_part=0.00000000 Properties=species:S:1:pos:R:3:velocities:R:3:Z:I:1
H        11.42584241       4.52227711      13.14705543         0.00000000       0.00000000       0.00000000          1
H         3.59389830       5.95010509       6.90952899         0.00000000       0.00000000       0.00000000          1
H         6.09786022      11.63074839      11.68353545         0.00000000       0.00000000       0.00000000          1
H         0.81085944       4.83619909       5.04958867         0.00000000       0.00000000       0.00000000          1
H        10.57331371       8.67477119      14.83574836         0.00000000       0.00000000       0.00000000          1
H        14.65407679       6.81937522      13.49692466         0.00000000       0.00000000       0.00000000          1
6
pbc=[F, F, F] list_num_par=6 frozen=false iter=219 energy=-0.09145328 Lattice="15.00000000 0.00000000 0.00000000 0.00000000 15.00000000 0.00000000 0.00000000 0.00000000 15.00000000" energy_frozen_part=0.00000000 Properties=species:S:1:pos:R:3:velocities:R:3:Z:I:1
H         0.35011664      11.40081706      12.15649546         0.00000000       0.00000000       0.00000000          1
H         3.50015999       6.17095462       4.17247104         0.00000000       0.00000000       0.00000000          1
H        11.26377654      10.80057710       9.25878531         0.00000000       0.00000000       0.00000000          1
H         7.87136136      14.85393705       7.71570607         0.00000000       0.00000000       0.00000000          1
H        11.20114352       5.68784220      13.76950544         0.00000000       0.00000000       0.00000000          1
H         8.28356513      10.04779891       9.55435252         0.00000000       0.00000000       0.00000000          1
6
pbc=[F, F, F] list_num_par=6 frozen=false iter=229 energy=-0.09440536 Lattice="15.00000000 0.00000000 0.00000000 0.00000000 15.00000000 0.00000000 0.00000000 0.00000000 15.00000000" energy_frozen_part=0.00000000 Properties=species:S:1:pos:R:3:velocities:R:3:Z:I:1
H         0.52836957      14.61643605       4.10418169         0.00000000       0.00000000       0.00000000          1
H        14.13370520       2.16191973       7.22695840         0.00000000       0.00000000       0.00000000          1
H        13.57662652       6.02678894      10.29945276         0.00000000       0.00000000       0.00000000          1
H         9.43602560       2.49912146      14.25291486         0.00000000       0.00000000       0.00000000          1
H         9.52002859       6.55842214       3.16857039         0.00000000       0.00000000       0.00000000          1
H        10.68903454       5.98836429       9.17571588         0.00000000       0.00000000       0.00000000          1
6
pbc=[F, F, F] list_num_par=6 frozen=false iter=239 energy=-0.09926980 Lattice="15.00000000 0.00000000 0.00000000 0.00000000 15.00000000 0.00000000 0.00000000 0.00000000 15.00000000" energy_frozen_part=0.00000000 Properties=species:S:1:pos:R:3:velocities:R:3:Z:I:1
H        12.45398658      13.90334068       8.80707612         0.00000000       0.00000000       0.00000000          1
H         5.11363301       4.17674155      11.08196533         0.00000000       0.00000000       0.00000000          1
H         6.42257040       3.69817568      13.78754878         0.00000000       0.00000000       0.00000000          1
H         8.08372149       9.54069296      14.82773976         0.00000000       0.00000000       0.00000000          1
H         3.14213129      12.42815896      13.19615183         0.00000000       0.00000000       0.00000000          1
H        10.18332014       9.00311592      10.15162798         0.00000000       0.00000000       0.00000000          1
6
pbc=[F, F, F] list_num_par=6 frozen=false iter=249 energy=-0.10208152 Lattice="15.00000000 0.00000000 0.00000000 0.00000000 15.00000000 0.00000000 0.00000000 0.00000000 15.00000000" energy_frozen_part=0.00000000 Properties=species:S:1:pos:R:3:velocities:R:3:Z:I:1
H         6.51308161      12.68583962       1.71339936         0.00000000       0.00000000       0.00000000          1
H        14.28195737       4.78567467      11.62797054         0.00000000       0.00000000       0.00000000          1
H         9.60950146      13.54198507      12.49966851         0.00000000       0.00000000       0.00000000          1
H         2.60894969       7.08680967       3.44704844         0.00000000       0.00000000       0.00000000          1
H         9.62330765      11.06376235      10.92671891         0.00000000       0.00000000       0.00000000          1
H        11.50414910       1.27061990      13.63875363         0.00000000       0.00000000       0.00000000          1
6
pbc=[F, F, F] list_num_par=6 frozen=false iter=259 energy=-0.10565081 Lattice="15.00000000 0.00000000 0.00000000 0.00000000 15.00000000 0.00000000 0.00000000 0.00000000 15.00000000" energy_frozen_part=0.00000000 Properties=species:S:1:pos:R:3:velocities:R:3:Z:I:1
H        12.15994060       1.81457618       7.20551495         0.00000000       0.00000000       0.00000000          1
H         4.05469935      13.03722890       5.32654125         0.00000000       0.00000000       0.00000000          1
H        11.51967423       9.83624438      12.14708644         0.00000000       0.00000000       0.00000000          1
H        14.23772104       1.79172251       9.00068885         0.00000000       0.00000000       0.00000000          1
H         9.43824047      14.30781682       6.31755752         0.00000000       0.00000000       0.00000000          1
H         0.98961262       8.69519654       5.25309627         0.00000000       0.00000000       0.00000000          1
6
pbc=[F, F, F] list_num_par=6 frozen=false iter=269 energy=-0.11185041 Lattice="15.00000000 0.00000000 0.00000000 0.00000000 15.00000000 0.00000000 0.00000000 0.00000000 15.00000000" energy_frozen_part=0.00000000 Properties=species:S:1:pos:R:3:velocities:R:3:Z:I:1
H         2.71096825       9.05377607       9.09286485         0.00000000       0.00000000       0.00000000          1
H        12.35204042       1.54941200       0.90781350         0.00000000       0.00000000       0.00000000          1
H         9.03126878       3.81096761       8.20426460         0.00000000       0.00000000       0.00000000          1
H        13.19278846      11.68666438      13.11709903         0.00000000       0.00000000       0.00000000          1
H         9.39501865       7.02399405      10.35576763         0.00000000       0.00000000       0.00000000          1
H        11.22043865      13.04898697      11.18975799         0.00000000       0.00000000       0.00000000          1
6
pbc=[F, F, F] list_num_par=6 frozen=false iter=279 energy=-0.11480616 Lattice="15.00000000 0.00000000 0.00000000 0.00000000 15.00000000 0.00000000 0.00000000 0.00000000 15.00000000" energy_frozen_part=0.00000000 Properties=species:S:1:pos:R:3:velocities:R:3:Z:I:1
H        10.80804200       3.78953196      13.13206775         0.00000000       0.00000000       0.00000000          1
H         6.23819560       5.63502369       3.55201290         0.00000000       0.00000000       0.00000000          1
H         6.95875501       9.93739024      10.16666334         0.00000000       0.00000000       0.00000000          1
H         6.31686300       8.00039826       0.96737668         0.00000000       0.00000000       0.00000000          1
H         6.71214309       0.86415148       7.24514795         0.00000000       0.00000000       0.00000000          1
H        10.72090174       7.04737555      12.69042827         0.00000000       0.00000000       0.00000000          1
6
pbc=[F, F, F] list_num_par=6 frozen=false iter=289 energy=-0.11908050 Lattice="15.00000000 0.00000000 0.00000000 0.00000000 15.00000000 0.00000000 0.00000000 0.00000000 15.00000000" energy_frozen_part=0.00000000 Properties=species:S:1:pos:R:3:velocities:R:3:Z:I:1
H         7.71415529      10.20377932      11.00535301         0.00000000       0.00000000       0.00000000          1
H         6.60533235       1.00368066       2.31382112         0.00000000       0.00000000       0.00000000          1
H         8.35751806       2.42593481       9.96983159         0.00000000       0.00000000       0.00000000          1
H         6.97386023      11.76368162      13.91924095         0.00000000       0.00000000       0.00000000          1
H         7.18051362       7.10042485      12.31545807         0.00000000       0.00000000       0.00000000          1
H        12.45440458      13.00474523       7.67593658         0.00000000       0.00000000       0.00000000          1
6
pbc=[F, F, F] list_num_par=6 frozen=false iter=299 energy=-0.12154308 Lattice="15.00000000 0.00000000 0.00000000 0.00000000 15.00000000 0.00000000 0.00000000 0.00000000 15.00000000" energy_frozen_part=0.00000000 Properties=species:S:1:pos:R:3:velocities:R:3:Z:I:1
H        12.50513944       8.80062750       6.82570455         0.00000000       0.00000000       0.00000000          1
H        14.85908592      11.29387239       5.22388809         0.00000000       0.00000000       0.00000000          1
H        13.12335366      14.57978746      14.50913071         0.00000000       0.00000000       0.00000000          1
H         4.86642801       6.09191344       4.72547486         0.00000000       0.00000000       0.00000000          1
H         6.22182339       7.93912651       6.86812176         0.00000000       0.00000000       0.00000000          1
H         6.28511593       6.84813010       0.56880217         0.00000000       0.00000000       0.00000000          1
6
pbc=[F, F, F] list_num_par=6 frozen=false iter=309 energy=-0.12463438 Lattice="15.00000000 0.00000000 0.00000000 0.00000000 15.00000000 0.00000000 0.00000000 0.00000000 15.00000000" energy_frozen_part=0.00000000 Properties=species:S:1:pos:R:3:velocities:R:3:Z:I:1
H         8.29988589       5.56059899       4.19400635         0.00000000       0.00000000       0.00000000          1
H         6.62010607       7.54346706       7.52944524         0.00000000       0.00000000       0.00000000          1