6
pbc=[F, F, F] list_num_par=6 frozen=false iter=20000 energy=-1.26974174 Lattice="15.00000000 0.00000000 0.00000000 0.00000000 15.00000000 0.00000000 0.00000000 0.00000000 15.00000000" energy_frozen_part=0.00000000 Properties=species:S:1:pos:R:3:velocities:R:3:Z:I:1
H         2.23032383      12.95329004       9.76406133         0.00000000       0.00000000       0.00000000          1
H         3.90374260      12.00242907      11.78886225         0.00000000       0.00000000       0.00000000          1
H         1.48402011      13.23681416      12.44117304         0.00000000       0.00000000       0.00000000          1
H         1.79556393      10.48649612      12.81929727         0.00000000       0.00000000       0.00000000          1
H         2.54187270      10.20297140      10.14219072         0.00000000       0.00000000       0.00000000          1
H         0.12214241      11.43735206      10.79449443         0.00000000       0.00000000       0.00000000          1
6
pbc=[F, F, F] list_num_par=6 frozen=false iter=20000 energy=-1.26974174 Lattice="15.00000000 0.00000000 0.00000000 0.00000000 15.00000000 0.00000000 0.00000000 0.00000000 15.00000000" energy_frozen_part=0.00000000 Properties=species:S:1:pos:R:3:velocities:R:3:Z:I:1
H         2.23064625      12.95241520       9.76323632         0.00000000       0.00000000       0.00000000          1
H         3.90442280      12.00236160      11.78811792         0.00000000       0.00000000       0.00000000          1
H         1.48493142      13.23724588      12.44037494         0.00000000       0.00000000       0.00000000          1
H         1.79634307      10.48708317      12.81971447         0.00000000       0.00000000       0.00000000          1
H         2.54204952      10.20224837      10.14257010         0.00000000       0.00000000       0.00000000          1
H         0.12256313      11.43713264      10.79483227         0.00000000       0.00000000       0.00000000          1
6
pbc=[F, F, F] list_num_par=6 frozen=false iter=20000 energy=-1.26974174 Lattice="15.00000000 0.00000000 0.00000000 0.00000000 15.00000000 0.00000000 0.00000000 0.00000000 15.00000000" energy_frozen_part=0.00000000 Properties=species:S:1:pos:R:3:velocities:R:3:Z:I:1
H         2.23122758      12.95578122       9.76573853         0.00000000       0.00000000       0.00000000          1
H         3.90205763      11.99965210      11.79020624         0.00000000       0.00000000       0.00000000          1
H         1.48346320      13.23610951      12.44278084         0.00000000       0.00000000       0.00000000          1
H         1.79124019      10.48480959      12.81685219         0.00000000       0.00000000       0.00000000          1
H         2.53901394      10.20448953      10.13981494         0.00000000       0.00000000       0.00000000          1
H         0.12041490      11.44094456      10.79239245         0.00000000       0.00000000       0.00000000          1
6
pbc=[F, F, F] list_num_par=6 frozen=false iter=20000 energy=-1.26974174 Lattice="15.00000000 0.00000000 0.00000000 0.00000000 15.00000000 0.00000000 0.00000000 0.00000000 15.00000000" energy_frozen_part=0.00000000 Properties=species:S:1:pos:R:3:velocities:R:3:Z:I:1
H         2.23031539      12.95337481       9.76415467         0.00000000       0.00000000       0.00000000          1
H         3.90373931      12.00247432      11.78892886         0.00000000       0.00000000       0.00000000          1
H         1.48392698      13.23666569      12.44126960         0.00000000       0.00000000       0.00000000          1
H         1.79562991      10.48633573      12.81920513         0.00000000       0.00000000       0.00000000          1
H         2.54201508      10.20304838      10.14208998         0.00000000       0.00000000       0.00000000          1
H         0.12220122      11.43724866      10.79443718         0.00000000       0.00000000       0.00000000          1
6
pbc=[F, F, F] list_num_par=6 frozen=false iter=20000 energy=-1.26974174 Lattice="15.00000000 0.00000000 0.00000000 0.00000000 15.00000000 0.00000000 0.00000000 0.00000000 15.00000000" energy_frozen_part=0.00000000 Properties=species:S:1:pos:R:3:velocities:R:3:Z:I:1
H         2.22073002      12.96018003       9.79707412         0.00000000       0.00000000       0.00000000          1
H         3.99019709      11.90747760      11.68521172         0.00000000       0.00000000       0.00000000          1
H         1.65698988      13.19525961      12.52309988         0.00000000       0.00000000       0.00000000          1
H         1.90626607      10.42796467      12.81328646         0.00000000       0.00000000       0.00000000          1
H         2.47000531      10.19288476      10.08725525         0.00000000       0.00000000       0.00000000          1
H         0.13679373      11.48066494      10.92514589         0.00000000       0.00000000       0.00000000          1
6
pbc=[F, F, F] list_num_par=6 frozen=false iter=20000 energy=-1.26974174 Lattice="15.00000000 0.00000000 0.00000000 0.00000000 15.00000000 0.00000000 0.00000000 0.00000000 15.00000000" energy_frozen_part=0.00000000 Properties=species:S:1:pos:R:3:velocities:R:3:Z:I:1
H         2.23028017      12.95330187       9.76410000         0.00000000       0.00000000       0.00000000          1
H         3.90372363      12.00243734      11.78888159         0.00000000       0.00000000       0.00000000          1
H         1.48398519      13.23678484      12.44122094         0.00000000       0.00000000       0.00000000          1
H         1.79556520      10.48647318      12.81931966         0.00000000       0.00000000       0.00000000          1
H         2.54185945      10.20297950      10.14219946         0.00000000       0.00000000       0.00000000          1
H         0.12212485      11.43733079      10.79452904         0.00000000       0.00000000       0.00000000          1
6
pbc=[F, F, F] list_num_par=6 frozen=false iter=20000 energy=-1.26974174 Lattice="15.00000000 0.00000000 0.00000000 0.00000000 15.00000000 0.00000000 0.00000000 0.00000000 15.00000000" energy_frozen_part=0.00000000 Properties=species:S:1:pos:R:3:velocities:R:3:Z:I:1
H         2.23031765      12.95329612       9.76405407         0.00000000       0.00000000       0.00000000          1
H         3.90374346      12.00242340      11.78884538         0.00000000       0.00000000       0.00000000          1
H         1.48402202      13.23681392      12.44117010         0.00000000       0.00000000       0.00000000          1
H         1.79555259      10.48649479      12.81928339         0.00000000       0.00000000       0.00000000          1
H         2.54184736      10.20298295      10.14217186         0.00000000       0.00000000       0.00000000          1
H         0.12212816      11.43737158      10.79449654         0.00000000       0.00000000       0.00000000          1
6
pbc=[F, F, F] list_num_par=6 frozen=false iter=20000 energy=-1.26974174 Lattice="15.00000000 0.00000000 0.00000000 0.00000000 15.00000000 0.00000000 0.00000000 0.00000000 15.00000000" energy_frozen_part=0.00000000 Properties=species:S:1:pos:R:3:velocities:R:3:Z:I:1
H         2.23029877      12.95337399       9.76414776         0.00000000       0.00000000       0.00000000          1
H         3.90373105      12.00247288      11.78892265         0.00000000       0.00000000       0.00000000          1
H         1.48390965      13.23665452      12.44125694         0.00000000       0.00000000       0.00000000          1
H         1.79562520      10.48633032      12.81920182         0.00000000       0.00000000       0.00000000          1
H         2.54200668      10.20304578      10.14208495         0.00000000       0.00000000       0.00000000          1
H         0.12219041      11.43722656      10.79442556         0.00000000       0.00000000       0.00000000          1
6
pbc=[F, F, F] list_num_par=6 frozen=false iter=20000 energy=-1.26974174 Lattice="15.00000000 0.00000000 0.00000000 0.00000000 15.00000000 0.00000000 0.00000000 0.00000000 15.00000000" energy_frozen_part=0.00000000 Properties=species:S:1:pos:R:3:velocities:R:3:Z:I:1
H         2.23060435      12.95241091       9.76322707         0.00000000       0.00000000       0.00000000          1
H         3.90440167      12.00238849      11.78810680         0.00000000       0.00000000       0.00000000          1
H         1.48490753      13.23724084      12.44036464         0.00000000       0.00000000       0.00000000          1
H         1.79634603      10.48707965      12.81971686         0.00000000       0.00000000       0.00000000          1
H         2.54205002      10.20224753      10.14257943         0.00000000       0.00000000       0.00000000          1
H         0.12254689      11.43709984      10.79483411         0.00000000       0.00000000       0.00000000          1
6
pbc=[F, F, F] list_num_par=6 frozen=false iter=20000 energy=-1.26974174 Lattice="15.00000000 0.00000000 0.00000000 0.00000000 15.00000000 0.00000000 0.00000000 0.00000000 15.00000000" energy_frozen_part=0.00000000 Properties=species:S:1:pos:R:3:velocities:R:3:Z:I:1
H         2.23033767      12.95336650       9.76415089         0.00000000       0.00000000       0.00000000          1
H         3.90374158      12.00244577      11.78893991         0.00000000       0.00000000       0.00000000          1
H         1.48393142      13.23666532      12.44125883         0.00000000       0.00000000       0.00000000          1
H         1.79560608      10.48634202      12.81920853         0.00000000       0.00000000       0.00000000          1
H         2.54200308      10.20303766      10.14210213         0.00000000       0.00000000       0.00000000          1
H         0.12219746      11.43725936      10.79441804         0.00000000       0.00000000       0.00000000          1
6
pbc=[F, F, F] list_num_par=6 frozen=false iter=20000 energy=-1.26974174 Lattice="15.00000000 0.00000000 0.00000000 0.00000000 15.00000000 0.00000000 0.00000000 0.00000000 15.00000000" energy_frozen_part=0.00000000 Properties=species:S:1:pos:R:3:velocities:R:3:Z:I:1
H         2.23061674      12.95241508       9.76320982         0.00000000       0.00000000       0.00000000          1
H         3.90441064      12.00238124      11.78808849         0.00000000       0.00000000       0.00000000          1
H         1.48491518      13.23724523      12.44035637         0.00000000       0.00000000       0.00000000          1
H         1.79634066      10.48708469      12.81970103         0.00000000       0.00000000       0.00000000          1
H         2.54204738      10.20225264      10.14256094         0.00000000       0.00000000       0.00000000          1
H         0.12255075      11.43711986      10.79482217         0.00000000       0.00000000       0.00000000          1
6
pbc=[F, F, F] list_num_par=6 frozen=false iter=20000 energy=-1.26974174 Lattice="15.00000000 0.00000000 0.00000000 0.00000000 15.00000000 0.00000000 0.00000000 0.00000000 15.00000000" energy_frozen_part=0.00000000 Properties=species:S:1:pos:R:3:velocities:R:3:Z:I:1
H         2.23064817      12.95244974       9.76326693         0.00000000       0.00000000       0.00000000          1
H         3.90446511      12.00239591      11.78811848         0.00000000       0.00000000       0.00000000          1
H         1.48495366      13.23720680      12.44041657         0.00000000       0.00000000       0.00000000          1
H         1.79642642      10.48704065      12.81970991         0.00000000       0.00000000       0.00000000          1
H         2.54212179      10.20228229      10.14255435         0.00000000       0.00000000       0.00000000          1
H         0.12261132      11.43709197      10.79484758         0.00000000       0.00000000       0.00000000          1
6
pbc=[F, F, F] list_num_par=6 frozen=false iter=20000 energy=-1.26974174 Lattice="15.00000000 0.00000000 0.00000000 0.00000000 15.00000000 0.00000000 0.00000000 0.00000000 15.00000000" energy_frozen_part=0.00000000 Properties=species:S:1:pos:R:3:velocities:R:3:Z:I:1
H         2.22071192      12.96017122       9.79706214         0.00000000       0.00000000       0.00000000          1
H         3.99020349      11.90750022      11.68519775         0.00000000       0.00000000       0.00000000          1
H         1.65698801      13.19526746      12.52308557         0.00000000       0.00000000       0.00000000          1
H         1.90629005      10.42797759      12.81329828         0.00000000       0.00000000       0.00000000          1
H         2.47000883      10.19287881      10.08726576         0.00000000       0.00000000       0.00000000          1
H         0.13679459      11.48064557      10.92516100         0.00000000       0.00000000       0.00000000          1
6
pbc=[F, F, F] list_num_par=6 frozen=false iter=20000 energy=-1.26974174 Lattice="15.00000000 0.00000000 0.00000000 0.00000000 15.00000000 0.00000000 0.00000000 0.00000000 15.00000000" energy_frozen_part=0.00000000 Properties=species:S:1:pos:R:3:velocities:R:3:Z:I:1
H         2.23126049      12.95581878       9.76576372         0.00000000       0.00000000       0.00000000          1
H         3.90203493      11.99964136      11.79024194         0.00000000       0.00000000       0.00000000          1
H         1.48343628      13.23611597      12.44278883         0.00000000       0.00000000       0.00000000          1
H         1.79117965      10.48481985      12.81682707         0.00000000       0.00000000       0.00000000          1
H         2.53900343      10.20451504      10.13979981         0.00000000       0.00000000       0.00000000          1
H         0.12040637      11.44099014      10.79234652         0.00000000       0.00000000       0.00000000          1
6
pbc=[F, F, F] list_num_par=6 frozen=false iter=20000 energy=-1.26974174 Lattice="15.00000000 0.00000000 0.00000000 0.00000000 15.00000000 0.00000000 0.00000000 0.00000000 15.00000000" energy_frozen_part=0.00000000 Properties=species:S:1:pos:R:3:velocities:R:3:Z:I:1
H         2.23063171      12.95241793       9.76322295         0.00000000       0.00000000       0.00000000          1
H         3.90442031      12.00237533      11.78810386         0.00000000       0.00000000       0.00000000          1
H         1.48492100      13.23723851      12.44036134         0.00000000       0.00000000       0.00000000          1
H         1.79635135      10.48707668      12.81970252         0.00000000       0.00000000       0.00000000          1
H         2.54206586      10.20225487      10.14255540         0.00000000       0.00000000       0.00000000          1
H         0.12256754      11.43711326      10.79481822         0.00000000       0.00000000       0.00000000          1
6
pbc=[F, F, F] list_num_par=6 frozen=false iter=20000 energy=-1.26974174 Lattice="15.00000000 0.00000000 0.00000000 0.00000000 15.00000000 0.00000000 0.00000000 0.00000000 15.00000000" energy_frozen_part=0.00000000 Properties=species:S:1:pos:R:3:velocities:R:3:Z:I:1
H         2.23027869      12.95329181       9.76408772         0.00000000       0.00000000       0.00000000          1
H         3.90371193      12.00243699      11.78887341         0.00000000       0.00000000       0.00000000          1
H         1.48397620      13.23678223      12.44120966         0.00000000       0.00000000       0.00000000          1
H         1.79555768      10.48646224      12.81930364         0.00000000       0.00000000       0.00000000          1
H         2.54185241      10.20297757      10.14218610         0.00000000       0.00000000       0.00000000          1
H         0.12211772      11.43732563      10.79452630         0.00000000       0.00000000       0.00000000          1
6
pbc=[F, F, F] list_num_par=6 frozen=false iter=20000 energy=-1.26974174 Lattice="15.00000000 0.00000000 0.00000000 0.00000000 15.00000000 0.00000000 0.00000000 0.00000000 15.00000000" energy_frozen_part=0.00000000 Properties=species:S:1:pos:R:3:velocities:R:3:Z:I:1
H         2.23031134      12.95335519       9.76415331         0.00000000       0.00000000       0.00000000          1
H         3.90374572      12.00246708      11.78893236         0.00000000       0.00000000       0.00000000          1
H         1.48391948      13.23663831      12.44126984         0.00000000       0.00000000       0.00000000          1
H         1.79563550      10.48631663      12.81920263         0.00000000       0.00000000       0.00000000          1
H         2.54203180      10.20303258      10.14209217         0.00000000       0.00000000       0.00000000          1
H         0.12220650      11.43721438      10.79443097         0.00000000       0.00000000       0.00000000          1
6
pbc=[F, F, F] list_num_par=6 frozen=false iter=20000 energy=-1.26974174 Lattice="15.00000000 0.00000000 0.00000000 0.00000000 15.00000000 0.00000000 0.00000000 0.00000000 15.00000000" energy_frozen_part=0.00000000 Properties=species:S:1:pos:R:3:velocities:R:3:Z:I:1
H         2.26567202      12.97275511       9.75051301         0.00000000       0.00000000       0.00000000          1
H         3.92868235      12.00716693      11.77691762         0.00000000       0.00000000       0.00000000          1
H         1.51630223      13.25718171      12.42667462         0.00000000       0.00000000       0.00000000          1
H         1.80815749      10.50418254      12.80098713         0.00000000       0.00000000       0.00000000          1
H         2.55751685      10.21976053      10.12482616         0.00000000       0.00000000       0.00000000          1
H         0.14514456      11.46978035      10.77458536         0.00000000       0.00000000       0.00000000          1
6
pbc=[F, F, F] list_num_par=6 frozen=false iter=20000 energy=-1.26974174 Lattice="15.00000000 0.00000000 0.00000000 0.00000000 15.00000000 0.00000000 0.00000000 0.00000000 15.00000000" energy_frozen_part=0.00000000 Properties=species:S:1:pos:R:3:velocities:R:3:Z:I:1
H         2.23030889      12.95335735       9.76415784         0.00000000       0.00000000       0.00000000          1
H         3.90374261      12.00246626      11.78893461         0.00000000       0.00000000       0.00000000          1
H         1.48392272      13.23664614      12.44126761         0.00000000       0.00000000       0.00000000          1
H         1.79563444      10.48632113      12.81921160         0.00000000       0.00000000       0.00000000          1
H         2.54202462      10.20303521      10.14209333         0.00000000       0.00000000       0.00000000          1
H         0.12220188      11.43721427      10.79443449         0.00000000       0.00000000       0.00000000          1
6
pbc=[F, F, F] list_num_par=6 frozen=false iter=20000 energy=-1.26974174 Lattice="15.00000000 0.00000000 0.00000000 0.00000000 15.00000000 0.00000000 0.00000000 0.00000000 15.00000000" energy_frozen_part=0.00000000 Properties=species:S:1:pos:R:3:velocities:R:3:Z:I:1
H         2.23035183      12.95339375       9.76415452         0.00000000       0.00000000       0.00000000          1
H         3.90374259      12.00245645      11.78894564         0.00000000       0.00000000       0.00000000          1
H         1.48395344      13.23670528      12.44126722         0.00000000       0.00000000       0.00000000          1
H         1.79559247      10.48637217      12.81921442         0.00000000       0.00000000       0.00000000          1
H         2.54198588      10.20305905      10.14210122         0.00000000       0.00000000       0.00000000          1
H         0.12219541      11.43730840      10.79442869         0.00000000       0.00000000       0.00000000          1
6
pbc=[F, F, F] list_num_par=6 frozen=false iter=20000 energy=-1.26974174 Lattice="15.00000000 0.00000000 0.00000000 0.00000000 15.00000000 0.00000000 0.00000000 0.00000000 15.00000000" energy_frozen_part=0.00000000 Properties=species:S:1:pos:R:3:velocities:R:3:Z:I:1
H         2.23063218      12.95242202       9.76324268         0.00000000       0.00000000       0.00000000          1
H         3.90441268      12.00236491      11.78811758         0.00000000       0.00000000       0.00000000          1
H         1.48492718      13.23724061      12.44037909         0.00000000       0.00000000       0.00000000          1
H         1.79632972      10.48707499      12.81971023         0.00000000       0.00000000       0.00000000          1
H         2.54204740      10.20225280      10.14257005         0.00000000       0.00000000       0.00000000          1
H         0.12255663      11.43712907      10.79482999         0.00000000       0.00000000       0.00000000          1
6
pbc=[F, F, F] list_num_par=6 frozen=false iter=20000 energy=-1.26974174 Lattice="15.00000000 0.00000000 0.00000000 0.00000000 15.00000000 0.00000000 0.00000000 0.00000000 15.00000000" energy_frozen_part=0.00000000 Properties=species:S:1:pos:R:3:velocities:R:3:Z:I:1
H         2.26566573      12.97278343       9.75052428         0.00000000       0.00000000       0.00000000          1
H         3.92871257      12.00715107      11.77687795         0.00000000       0.00000000       0.00000000          1
H         1.51638251      13.25721957      12.42670743         0.00000000       0.00000000       0.00000000          1
H         1.80819317      10.50421958      12.80101682         0.00000000       0.00000000       0.00000000          1
H         2.55746376      10.21977630      10.12483283         0.00000000       0.00000000       0.00000000          1
H         0.14514219      11.46984994      10.77466130         0.00000000       0.00000000       0.00000000          1
6
pbc=[F, F, F] list_num_par=6 frozen=false iter=20000 energy=-1.26974174 Lattice="15.00000000 0.00000000 0.00000000 0.00000000 15.00000000 0.00000000 0.00000000 0.00000000 15.00000000" energy_frozen_part=0.00000000 Properties=species:S:1:pos:R:3:velocities:R:3:Z:I:1
H         2.26564936      12.97278196       9.75052887         0.00000000       0.00000000       0.00000000          1
H         3.92871188      12.00718913      11.77688904         0.00000000       0.00000000       0.00000000          1
H         1.51636824      13.25722247      12.42671592         0.00000000       0.00000000       0.00000000          1
H         1.80820985      10.50422061      12.80103303         0.00000000       0.00000000       0.00000000          1
H         2.55749750      10.21978474      10.12484757         0.00000000       0.00000000       0.00000000          1
H         0.14514862      11.46982388      10.77467695         0.00000000       0.00000000       0.00000000          1
6
pbc=[F, F, F] list_num_par=6 frozen=false iter=20000 energy=-1.26974174 Lattice="15.00000000 0.00000000 0.00000000 0.00000000 15.00000000 0.00000000 0.00000000 0.00000000 15.00000000" energy_frozen_part=0.00000000 Properties=species:S:1:pos:R:3:velocities:R:3:Z:I:1
H         2.23119645      12.95580824       9.76575183         0.00000000       0.00000000       0.00000000          1
H         3.90202979      11.99965091      11.79019680         0.00000000       0.00000000       0.00000000          1
H         1.48343273      13.23608612      12.44279691         0.00000000       0.00000000       0.00000000          1
H         1.79122457      10.48478779      12.81683398         0.00000000       0.00000000       0.00000000          1
H         2.53898737      10.20451284      10.13978593         0.00000000       0.00000000       0.00000000          1
H         0.12038650      11.44094351      10.79239121         0.00000000       0.00000000       0.00000000          1
6
pbc=[F, F, F] list_num_par=6 frozen=false iter=20000 energy=-1.26974174 Lattice="15.00000000 0.00000000 0.00000000 0.00000000 15.00000000 0.00000000 0.00000000 0.00000000 15.00000000" energy_frozen_part=0.00000000 Properties=species:S:1:pos:R:3:velocities:R:3:Z:I:1
H         2.23031991      12.95331276       9.76405612         0.00000000       0.00000000       0.00000000          1
H         3.90374098      12.00242405      11.78885001         0.00000000       0.00000000       0.00000000          1
H         1.48401702      13.23681814      12.44117099         0.00000000       0.00000000       0.00000000          1
H         1.79554515      10.48650061      12.81927881         0.00000000       0.00000000       0.00000000          1
H         2.54184987      10.20299137      10.14216372         0.00000000       0.00000000       0.00000000          1
H         0.12213137      11.43738269      10.79448669         0.00000000       0.00000000       0.00000000          1
6
pbc=[F, F, F] list_num_par=6 frozen=false iter=20000 energy=-1.26974174 Lattice="15.00000000 0.00000000 0.00000000 0.00000000 15.00000000 0.00000000 0.00000000 0.00000000 15.00000000" energy_frozen_part=0.00000000 Properties=species:S:1:pos:R:3:velocities:R:3:Z:I:1
H         2.23031625      12.95346344       9.76425674         0.00000000       0.00000000       0.00000000          1
H         3.90362974      12.00254839      11.78911749         0.00000000       0.00000000       0.00000000          1
H         1.48375639      13.23669502      12.44132091         0.00000000       0.00000000       0.00000000          1
H         1.79546867      10.48636833      12.81923780         0.00000000       0.00000000       0.00000000          1
H         2.54203399      10.20313831      10.14216424         0.00000000       0.00000000       0.00000000          1
H         0.12215704      11.43728264      10.79437677         0.00000000       0.00000000       0.00000000          1
6
pbc=[F, F, F] list_num_par=6 frozen=false iter=20000 energy=-1.26974174 Lattice="15.00000000 0.00000000 0.00000000 0.00000000 15.00000000 0.00000000 0.00000000 0.00000000 15.00000000" energy_frozen_part=0.00000000 Properties=species:S:1:pos:R:3:velocities:R:3:Z:I:1
H         2.23032536      12.95329502       9.76406061         0.00000000       0.00000000       0.00000000          1
H         3.90374331      12.00241951      11.78886122         0.00000000       0.00000000       0.00000000          1
H         1.48402275      13.23681690      12.44117168         0.00000000       0.00000000       0.00000000          1
H         1.79555138      10.48649852      12.81929011         0.00000000       0.00000000       0.00000000          1
H         2.54185605      10.20297267      10.14217868         0.00000000       0.00000000       0.00000000          1
H         0.12213937      11.43737199      10.79448761         0.00000000       0.00000000       0.00000000          1
6
pbc=[F, F, F] list_num_par=6 frozen=false iter=20000 energy=-1.26974174 Lattice="15.00000000 0.00000000 0.00000000 0.00000000 15.00000000 0.00000000 0.00000000 0.00000000 15.00000000" energy_frozen_part=0.00000000 Properties=species:S:1:pos:R:3:velocities:R:3:Z:I:1
H         2.26567757      12.97277461       9.75052544         0.00000000       0.00000000       0.00000000          1
H         3.92869118      12.00716622      11.77691671         0.00000000       0.00000000       0.00000000          1
H         1.51631875      13.25718780      12.42668907         0.00000000       0.00000000       0.00000000          1
H         1.80817015      10.50418939      12.80099006         0.00000000       0.00000000       0.00000000          1
H         2.55753326      10.21977543      10.12482737         0.00000000       0.00000000       0.00000000          1
H         0.14516077      11.46978824      10.77459373         0.00000000       0.00000000       0.00000000          1
6
pbc=[F, F, F] list_num_par=6 frozen=false iter=20000 energy=-1.26974174 Lattice="15.00000000 0.00000000 0.00000000 0.00000000 15.00000000 0.00000000 0.00000000 0.00000000 15.00000000" energy_frozen_part=0.00000000 Properties=species:S:1:pos:R:3:velocities:R:3:Z:I:1
H         2.23029004      12.95328957       9.76409591         0.00000000       0.00000000       0.00000000          1
H         3.90372723      12.00241623      11.78887698         0.00000000       0.00000000       0.00000000          1
H         1.48399513      13.23677172      12.44121505         0.00000000       0.00000000       0.00000000          1
H         1.79556528      10.48645176      12.81931063         0.00000000       0.00000000       0.00000000          1
H         2.54185543      10.20297099      10.14219082         0.00000000       0.00000000       0.00000000          1
H         0.12212035      11.43732492      10.79453500         0.00000000       0.00000000       0.00000000          1
6
pbc=[F, F, F] list_num_par=6 frozen=false iter=20000 energy=-1.26974174 Lattice="15.00000000 0.00000000 0.00000000 0.00000000 15.00000000 0.00000000 0.00000000 0.00000000 15.00000000" energy_frozen_part=0.00000000 Properties=species:S:1:pos:R:3:velocities:R:3:Z:I:1
H         2.23031596      12.95330232       9.76406022         0.00000000       0.00000000       0.00000000          1
H         3.90373788      12.00243125      11.78885290         0.00000000       0.00000000       0.00000000          1
H         1.48401748      13.23681778      12.44117761         0.00000000       0.00000000       0.00000000          1
H         1.79554869      10.48649904      12.81928437         0.00000000       0.00000000       0.00000000          1
H         2.54184802      10.20298179      10.14217730         0.00000000       0.00000000       0.00000000          1
H         0.12213068      11.43737927      10.79449185         0.00000000       0.00000000       0.00000000          1
6
pbc=[F, F, F] list_num_par=6 frozen=false iter=20000 energy=-1.26974174 Lattice="15.00000000 0.00000000 0.00000000 0.00000000 15.00000000 0.00000000 0.00000000 0.00000000 15.00000000" energy_frozen_part=0.00000000 Properties=species:S:1:pos:R:3:velocities:R:3:Z:I:1
H         2.23063857      12.95241247       9.76323065         0.00000000       0.00000000       0.00000000          1
H         3.90441355      12.00236739      11.78811641         0.00000000       0.00000000       0.00000000          1