6
pbc=[F, F, F] list_num_par=6 energy=-1.26974174 iter=20000 frozen=false Lattice="15.00000000 0.00000000 0.00000000 0.00000000 15.00000000 0.00000000 0.00000000 0.00000000 15.00000000" energy_frozen_part=0.00000000 Properties=species:S:1:pos:R:3:velocities:R:3:Z:I:1
H         5.95026080       9.15708421       5.40467498         0.00000000       0.00000000       0.00000000          1
H         5.77422415       6.45621517       6.09647585         0.00000000       0.00000000       0.00000000          1
H         5.05844285       7.28973831       3.52798003         0.00000000       0.00000000       0.00000000          1
H         3.98357761       8.29866515       7.19340106         0.00000000       0.00000000       0.00000000          1
H         3.09175658       6.43131199       5.31671588         0.00000000       0.00000000       0.00000000          1
H         3.26779362       9.13218669       4.62490521         0.00000000       0.00000000       0.00000000          1
6
pbc=[F, F, F] list_num_par=6 energy=-1.26974174 iter=20000 frozen=false Lattice="15.00000000 0.00000000 0.00000000 0.00000000 15.00000000 0.00000000 0.00000000 0.00000000 15.00000000" energy_frozen_part=0.00000000 Properties=species:S:1:pos:R:3:velocities:R:3:Z:I:1
H         5.86972885       9.22475094       5.44528352         0.00000000       0.00000000       0.00000000          1
H         5.76749105       6.53550588       6.19478311         0.00000000       0.00000000       0.00000000          1
H         5.10728916       7.28444628       3.58566587         0.00000000       0.00000000       0.00000000          1
H         3.87715548       8.33571040       7.18986146         0.00000000       0.00000000       0.00000000          1
H         3.11471990       6.39540197       5.33023784         0.00000000       0.00000000       0.00000000          1
H         3.21695174       9.08465425       4.58074353         0.00000000       0.00000000       0.00000000          1
6
pbc=[F, F, F] list_num_par=6 energy=-1.26974174 iter=20000 frozen=false Lattice="15.00000000 0.00000000 0.00000000 0.00000000 15.00000000 0.00000000 0.00000000 0.00000000 15.00000000" energy_frozen_part=0.00000000 Properties=species:S:1:pos:R:3:velocities:R:3:Z:I:1
H         5.86976710       9.22449536       5.44565857         0.00000000       0.00000000       0.00000000          1
H         5.76738716       6.53526625       6.19522370         0.00000000       0.00000000       0.00000000          1
H         5.10755961       7.28415348       3.58599277         0.00000000       0.00000000       0.00000000          1
H         3.87694128       8.33553097       7.18997560         0.00000000       0.00000000       0.00000000          1
H         3.11473248       6.39518479       5.33030914         0.00000000       0.00000000       0.00000000          1
H         3.21710561       9.08441367       4.58074690         0.00000000       0.00000000       0.00000000          1
6
pbc=[F, F, F] list_num_par=6 energy=-1.26974174 iter=20000 frozen=false Lattice="15.00000000 0.00000000 0.00000000 0.00000000 15.00000000 0.00000000 0.00000000 0.00000000 15.00000000" energy_frozen_part=0.00000000 Properties=species:S:1:pos:R:3:velocities:R:3:Z:I:1
H         6.46527201       8.95897001       5.61555932         0.00000000       0.00000000       0.00000000          1
H         6.13494680       6.20887356       5.97908636         0.00000000       0.00000000       0.00000000          1
H         5.55774519       7.37003532       3.50464852         0.00000000       0.00000000       0.00000000          1
H         4.39343673       8.00187930       7.22670594         0.00000000       0.00000000       0.00000000          1
H         3.48591566       6.41294104       5.11578639         0.00000000       0.00000000       0.00000000          1
H         3.81623723       9.16304212       4.75227690         0.00000000       0.00000000       0.00000000          1
6
pbc=[F, F, F] list_num_par=6 energy=-1.26974174 iter=20000 frozen=false Lattice="15.00000000 0.00000000 0.00000000 0.00000000 15.00000000 0.00000000 0.00000000 0.00000000 15.00000000" energy_frozen_part=0.00000000 Properties=species:S:1:pos:R:3:velocities:R:3:Z:I:1
H         5.86979418       9.22449679       5.44562722         0.00000000       0.00000000       0.00000000          1
H         5.76746241       6.53525377       6.19516817         0.00000000       0.00000000       0.00000000          1
H         5.10756173       7.28415200       3.58595623         0.00000000       0.00000000       0.00000000          1
H         3.87702649       8.33548959       7.18998948         0.00000000       0.00000000       0.00000000          1
H         3.11478691       6.39514785       5.33031902         0.00000000       0.00000000       0.00000000          1
H         3.21711947       9.08438548       4.58078252         0.00000000       0.00000000       0.00000000          1
6
pbc=[F, F, F] list_num_par=6 energy=-1.26974174 iter=20000 frozen=false Lattice="15.00000000 0.00000000 0.00000000 0.00000000 15.00000000 0.00000000 0.00000000 0.00000000 15.00000000" energy_frozen_part=0.00000000 Properties=species:S:1:pos:R:3:velocities:R:3:Z:I:1
H         5.86976815       9.22451203       5.44557232         0.00000000       0.00000000       0.00000000          1
H         5.76745580       6.53529074       6.19516914         0.00000000       0.00000000       0.00000000          1
H         5.10751190       7.28413670       3.58595344         0.00000000       0.00000000       0.00000000          1
H         3.87702466       8.33553371       7.18998280         0.00000000       0.00000000       0.00000000          1
H         3.11476178       6.39515942       5.33035910         0.00000000       0.00000000       0.00000000          1
H         3.21707780       9.08438478       4.58076599         0.00000000       0.00000000       0.00000000          1
6
pbc=[F, F, F] list_num_par=6 energy=-1.26974174 iter=20000 frozen=false Lattice="15.00000000 0.00000000 0.00000000 0.00000000 15.00000000 0.00000000 0.00000000 0.00000000 15.00000000" energy_frozen_part=0.00000000 Properties=species:S:1:pos:R:3:velocities:R:3:Z:I:1
H         5.86991442       9.22456692       5.44533921         0.00000000       0.00000000       0.00000000          1
H         5.76759245       6.53531652       6.19481855         0.00000000       0.00000000       0.00000000          1
H         5.10738743       7.28430644       3.58571320         0.00000000       0.00000000       0.00000000          1
H         3.87733313       8.33557340       7.18992718         0.00000000       0.00000000       0.00000000          1
H         3.11480426       6.39531252       5.33029773         0.00000000       0.00000000       0.00000000          1
H         3.21712452       9.08457435       4.58082792         0.00000000       0.00000000       0.00000000          1
6
pbc=[F, F, F] list_num_par=6 energy=-1.26974174 iter=20000 frozen=false Lattice="15.00000000 0.00000000 0.00000000 0.00000000 15.00000000 0.00000000 0.00000000 0.00000000 15.00000000" energy_frozen_part=0.00000000 Properties=species:S:1:pos:R:3:velocities:R:3:Z:I:1
H         5.86969503       9.22474343       5.44524379         0.00000000       0.00000000       0.00000000          1
H         5.76748415       6.53549300       6.19475927         0.00000000       0.00000000       0.00000000          1
H         5.10726345       7.28441876       3.58563932         0.00000000       0.00000000       0.00000000          1
H         3.87713509       8.33568831       7.18982915         0.00000000       0.00000000       0.00000000          1
H         3.11471309       6.39536581       5.33022564         0.00000000       0.00000000       0.00000000          1
H         3.21692059       9.08461272       4.58071016         0.00000000       0.00000000       0.00000000          1
6
pbc=[F, F, F] list_num_par=6 energy=-1.26974174 iter=20000 frozen=false Lattice="15.00000000 0.00000000 0.00000000 0.00000000 15.00000000 0.00000000 0.00000000 0.00000000 15.00000000" energy_frozen_part=0.00000000 Properties=species:S:1:pos:R:3:velocities:R:3:Z:I:1
H         5.86990909       9.22456969       5.44534326         0.00000000       0.00000000       0.00000000          1
H         5.76759567       6.53530031       6.19480389         0.00000000       0.00000000       0.00000000          1
H         5.10738132       7.28431396       3.58570985         0.00000000       0.00000000       0.00000000          1
H         3.87733130       8.33555768       7.18992966         0.00000000       0.00000000       0.00000000          1
H         3.11480431       6.39530058       5.33029762         0.00000000       0.00000000       0.00000000          1
H         3.21711704       9.08456209       4.58083771         0.00000000       0.00000000       0.00000000          1
6
pbc=[F, F, F] list_num_par=6 energy=-1.26974174 iter=20000 frozen=false Lattice="15.00000000 0.00000000 0.00000000 0.00000000 15.00000000 0.00000000 0.00000000 0.00000000 15.00000000" energy_frozen_part=0.00000000 Properties=species:S:1:pos:R:3:velocities:R:3:Z:I:1
H         5.95023271       9.15711443       5.40465555         0.00000000       0.00000000       0.00000000          1
H         5.77427427       6.45624628       6.09650608         0.00000000       0.00000000       0.00000000          1
H         5.05845589       7.28971531       3.52799735         0.00000000       0.00000000       0.00000000          1
H         3.98358403       8.29867010       7.19340449         0.00000000       0.00000000       0.00000000          1
H         3.09180178       6.43127067       5.31675215         0.00000000       0.00000000       0.00000000          1
H         3.26775925       9.13213570       4.62490550         0.00000000       0.00000000       0.00000000          1
6
pbc=[F, F, F] list_num_par=6 energy=-1.26974174 iter=20000 frozen=false Lattice="15.00000000 0.00000000 0.00000000 0.00000000 15.00000000 0.00000000 0.00000000 0.00000000 15.00000000" energy_frozen_part=0.00000000 Properties=species:S:1:pos:R:3:velocities:R:3:Z:I:1
H         6.43390642       8.95492280       5.64722376         0.00000000       0.00000000       0.00000000          1
H         6.08247225       6.20766677       6.01241199         0.00000000       0.00000000       0.00000000          1
H         5.53276798       7.36859331       3.53161658         0.00000000       0.00000000       0.00000000          1
H         4.34296842       8.01416565       7.24323868         0.00000000       0.00000000       0.00000000          1
H         3.44183562       6.42784007       5.12762811         0.00000000       0.00000000       0.00000000          1
H         3.79326404       9.17509450       4.76244662         0.00000000       0.00000000       0.00000000          1
6
pbc=[F, F, F] list_num_par=6 energy=-1.26974174 iter=20000 frozen=false Lattice="15.00000000 0.00000000 0.00000000 0.00000000 15.00000000 0.00000000 0.00000000 0.00000000 15.00000000" energy_frozen_part=0.00000000 Properties=species:S:1:pos:R:3:velocities:R:3:Z:I:1
H         5.86992652       9.22455137       5.44527705         0.00000000       0.00000000       0.00000000          1
H         5.76763744       6.53530941       6.19480504         0.00000000       0.00000000       0.00000000          1
H         5.10742558       7.28424366       3.58568498         0.00000000       0.00000000       0.00000000          1
H         3.87734736       8.33556652       7.18987271         0.00000000       0.00000000       0.00000000          1
H         3.11485005       6.39526136       5.33028620         0.00000000       0.00000000       0.00000000          1
H         3.21713993       9.08450986       4.58076126         0.00000000       0.00000000       0.00000000          1
6
pbc=[F, F, F] list_num_par=6 energy=-1.26974174 iter=20000 frozen=false Lattice="15.00000000 0.00000000 0.00000000 0.00000000 15.00000000 0.00000000 0.00000000 0.00000000 15.00000000" energy_frozen_part=0.00000000 Properties=species:S:1:pos:R:3:velocities:R:3:Z:I:1
H         5.86968894       9.22477421       5.44526679         0.00000000       0.00000000       0.00000000          1
H         5.76751810       6.53551399       6.19473618         0.00000000       0.00000000       0.00000000          1
H         5.10725415       7.28447277       3.58564632         0.00000000       0.00000000       0.00000000          1
H         3.87716758       8.33566973       7.18986564         0.00000000       0.00000000       0.00000000          1
H         3.11473048       6.39536451       5.33024375         0.00000000       0.00000000       0.00000000          1
H         3.21689688       9.08463002       4.58077069         0.00000000       0.00000000       0.00000000          1
6
pbc=[F, F, F] list_num_par=6 energy=-1.26974174 iter=20000 frozen=false Lattice="15.00000000 0.00000000 0.00000000 0.00000000 15.00000000 0.00000000 0.00000000 0.00000000 15.00000000" energy_frozen_part=0.00000000 Properties=species:S:1:pos:R:3:velocities:R:3:Z:I:1
H         5.86992752       9.22455450       5.44528435         0.00000000       0.00000000       0.00000000          1
H         5.76763303       6.53530980       6.19480899         0.00000000       0.00000000       0.00000000          1
H         5.10742836       7.28425025       3.58568790         0.00000000       0.00000000       0.00000000          1
H         3.87735093       8.33556677       7.18988420         0.00000000       0.00000000       0.00000000          1
H         3.11484590       6.39525810       5.33028571         0.00000000       0.00000000       0.00000000          1
H         3.21713471       9.08450249       4.58076962         0.00000000       0.00000000       0.00000000          1
6
pbc=[F, F, F] list_num_par=6 energy=-1.26974174 iter=20000 frozen=false Lattice="15.00000000 0.00000000 0.00000000 0.00000000 15.00000000 0.00000000 0.00000000 0.00000000 15.00000000" energy_frozen_part=0.00000000 Properties=species:S:1:pos:R:3:velocities:R:3:Z:I:1
H         5.86989800       9.22458758       5.44536612         0.00000000       0.00000000       0.00000000          1
H         5.76759881       6.53532357       6.19482078         0.00000000       0.00000000       0.00000000          1
H         5.10739402       7.28432934       3.58571567         0.00000000       0.00000000       0.00000000          1
H         3.87731355       8.33555674       7.18994195         0.00000000       0.00000000       0.00000000          1
H         3.11481699       6.39530071       5.33029591         0.00000000       0.00000000       0.00000000          1
H         3.21711641       9.08456685       4.58083922         0.00000000       0.00000000       0.00000000          1
6
pbc=[F, F, F] list_num_par=6 energy=-1.26974174 iter=20000 frozen=false Lattice="15.00000000 0.00000000 0.00000000 0.00000000 15.00000000 0.00000000 0.00000000 0.00000000 15.00000000" energy_frozen_part=0.00000000 Properties=species:S:1:pos:R:3:velocities:R:3:Z:I:1
H         6.46527252       8.95895972       5.61557106         0.00000000       0.00000000       0.00000000          1
H         6.13493933       6.20886549       5.97908542         0.00000000       0.00000000       0.00000000          1
H         5.55775296       7.37003940       3.50465084         0.00000000       0.00000000       0.00000000          1
H         4.39343699       8.00187583       7.22670483         0.00000000       0.00000000       0.00000000          1
H         3.48591041       6.41295510       5.11577676         0.00000000       0.00000000       0.00000000          1
H         3.81624557       9.16304910       4.75227646         0.00000000       0.00000000       0.00000000          1
6
pbc=[F, F, F] list_num_par=6 energy=-1.26974174 iter=20000 frozen=false Lattice="15.00000000 0.00000000 0.00000000 0.00000000 15.00000000 0.00000000 0.00000000 0.00000000 15.00000000" energy_frozen_part=0.00000000 Properties=species:S:1:pos:R:3:velocities:R:3:Z:I:1
H         5.86993646       9.22453849       5.44529536         0.00000000       0.00000000       0.00000000          1
H         5.76764670       6.53528781       6.19479600         0.00000000       0.00000000       0.00000000          1
H         5.10742300       7.28424381       3.58568618         0.00000000       0.00000000       0.00000000          1
H         3.87736970       8.33554119       7.18990062         0.00000000       0.00000000       0.00000000          1
H         3.11485178       6.39525698       5.33029782         0.00000000       0.00000000       0.00000000          1
H         3.21714821       9.08449803       4.58078723         0.00000000       0.00000000       0.00000000          1
6
pbc=[F, F, F] list_num_par=6 energy=-1.26974174 iter=20000 frozen=false Lattice="15.00000000 0.00000000 0.00000000 0.00000000 15.00000000 0.00000000 0.00000000 0.00000000 15.00000000" energy_frozen_part=0.00000000 Properties=species:S:1:pos:R:3:velocities:R:3:Z:I:1
H         5.86990034       9.22456957       5.44535421         0.00000000       0.00000000       0.00000000          1
H         5.76759082       6.53529962       6.19479073         0.00000000       0.00000000       0.00000000          1
H         5.10736438       7.28433432       3.58569866         0.00000000       0.00000000       0.00000000          1
H         3.87732500       8.33554262       7.18993953         0.00000000       0.00000000       0.00000000          1
H         3.11479769       6.39531301       5.33028108         0.00000000       0.00000000       0.00000000          1
H         3.21710796       9.08458249       4.58085469         0.00000000       0.00000000       0.00000000          1
6
pbc=[F, F, F] list_num_par=6 energy=-1.26974174 iter=20000 frozen=false Lattice="15.00000000 0.00000000 0.00000000 0.00000000 15.00000000 0.00000000 0.00000000 0.00000000 15.00000000" energy_frozen_part=0.00000000 Properties=species:S:1:pos:R:3:velocities:R:3:Z:I:1
H         6.46525942       8.95901411       5.61562160         0.00000000       0.00000000       0.00000000          1
H         6.13490878       6.20889846       5.97892986         0.00000000       0.00000000       0.00000000          1
H         5.55767521       7.37025841       3.50460101         0.00000000       0.00000000       0.00000000          1
H         4.39344454       8.00182427       7.22673033         0.00000000       0.00000000       0.00000000          1
H         3.48586162       6.41306792       5.11570876         0.00000000       0.00000000       0.00000000          1
H         3.81621456       9.16318413       4.75240156         0.00000000       0.00000000       0.00000000          1
6
pbc=[F, F, F] list_num_par=6 energy=-1.26974174 iter=20000 frozen=false Lattice="15.00000000 0.00000000 0.00000000 0.00000000 15.00000000 0.00000000 0.00000000 0.00000000 15.00000000" energy_frozen_part=0.00000000 Properties=species:S:1:pos:R:3:velocities:R:3:Z:I:1
H         5.86983564       9.22469679       5.44526638         0.00000000       0.00000000       0.00000000          1
H         5.76766914       6.53547870       6.19488995         0.00000000       0.00000000       0.00000000          1
H         5.10741129       7.28429716       3.58574542         0.00000000       0.00000000       0.00000000          1
H         3.87731428       8.33568768       7.18990713         0.00000000       0.00000000       0.00000000          1
H         3.11488547       6.39528014       5.33038742         0.00000000       0.00000000       0.00000000          1
H         3.21705187       9.08450529       4.58076882         0.00000000       0.00000000       0.00000000          1
6
pbc=[F, F, F] list_num_par=6 energy=-1.26974174 iter=20000 frozen=false Lattice="15.00000000 0.00000000 0.00000000 0.00000000 15.00000000 0.00000000 0.00000000 0.00000000 15.00000000" energy_frozen_part=0.00000000 Properties=species:S:1:pos:R:3:velocities:R:3:Z:I:1
H         5.86968794       9.22474286       5.44523809         0.00000000       0.00000000       0.00000000          1
H         5.76748975       6.53549036       6.19475590         0.00000000       0.00000000       0.00000000          1
H         5.10726345       7.28441876       3.58563932         0.00000000       0.00000000       0.00000000          1
H         3.87714254       8.33568090       7.18983130         0.00000000       0.00000000       0.00000000          1
H         3.11470616       6.39535632       5.33022830         0.00000000       0.00000000       0.00000000          1
H         3.21691290       9.08460636       4.58070906         0.00000000       0.00000000       0.00000000          1
6
pbc=[F, F, F] list_num_par=6 energy=-1.26974174 iter=20000 frozen=false Lattice="15.00000000 0.00000000 0.00000000 0.00000000 15.00000000 0.00000000 0.00000000 0.00000000 15.00000000" energy_frozen_part=0.00000000 Properties=species:S:1:pos:R:3:velocities:R:3:Z:I:1
H         6.46527164       8.95898560       5.61555596         0.00000000       0.00000000       0.00000000          1
H         6.13495025       6.20889192       5.97904919         0.00000000       0.00000000       0.00000000          1
H         5.55775396       7.37007004       3.50462556         0.00000000       0.00000000       0.00000000          1
H         4.39344106       8.00187905       7.22669636         0.00000000       0.00000000       0.00000000          1
H         3.48591793       6.41296290       5.11576095         0.00000000       0.00000000       0.00000000          1
H         3.81624126       9.16305815       4.75226955         0.00000000       0.00000000       0.00000000          1
6
pbc=[F, F, F] list_num_par=6 energy=-1.26974174 iter=20000 frozen=false Lattice="15.00000000 0.00000000 0.00000000 0.00000000 15.00000000 0.00000000 0.00000000 0.00000000 15.00000000" energy_frozen_part=0.00000000 Properties=species:S:1:pos:R:3:velocities:R:3:Z:I:1
H         5.86971722       9.22474580       5.44526327         0.00000000       0.00000000       0.00000000          1
H         5.76749457       6.53549451       6.19476753         0.00000000       0.00000000       0.00000000          1
H         5.10725985       7.28444195       3.58565368         0.00000000       0.00000000       0.00000000          1
H         3.87716613       8.33570170       7.18985728         0.00000000       0.00000000       0.00000000          1
H         3.11470706       6.39539394       5.33024515         0.00000000       0.00000000       0.00000000          1
H         3.21693096       9.08464434       4.58075273         0.00000000       0.00000000       0.00000000          1
6
pbc=[F, F, F] list_num_par=6 energy=-1.26974174 iter=20000 frozen=false Lattice="15.00000000 0.00000000 0.00000000 0.00000000 15.00000000 0.00000000 0.00000000 0.00000000 15.00000000" energy_frozen_part=0.00000000 Properties=species:S:1:pos:R:3:velocities:R:3:Z:I:1
H         5.86991180       9.22458540       5.44536445         0.00000000       0.00000000       0.00000000          1
H         5.76759777       6.53532469       6.19482155         0.00000000       0.00000000       0.00000000          1
H         5.10739796       7.28432509       3.58572405         0.00000000       0.00000000       0.00000000          1
H         3.87732392       8.33556805       7.18993845         0.00000000       0.00000000       0.00000000          1
H         3.11480759       6.39530696       5.33030181         0.00000000       0.00000000       0.00000000          1
H         3.21712669       9.08456951       4.58083755         0.00000000       0.00000000       0.00000000          1
6
pbc=[F, F, F] list_num_par=6 energy=-1.26974174 iter=20000 frozen=false Lattice="15.00000000 0.00000000 0.00000000 0.00000000 15.00000000 0.00000000 0.00000000 0.00000000 15.00000000" energy_frozen_part=0.00000000 Properties=species:S:1:pos:R:3:velocities:R:3:Z:I:1
H         5.86984098       9.22353677       5.44412084         0.00000000       0.00000000       0.00000000          1
H         5.76761719       6.53456390       6.19463644         0.00000000       0.00000000       0.00000000          1
H         5.10569054       7.28273418       3.58572602         0.00000000       0.00000000       0.00000000          1
H         3.87834961       8.33549492       7.19043772         0.00000000       0.00000000       0.00000000          1
H         3.11420004       6.39468742       5.33203793         0.00000000       0.00000000       0.00000000          1
H         3.21642176       9.08365942       4.58152988         0.00000000       0.00000000       0.00000000          1
6
pbc=[F, F, F] list_num_par=6 energy=-1.26974174 iter=20000 frozen=false Lattice="15.00000000 0.00000000 0.00000000 0.00000000 15.00000000 0.00000000 0.00000000 0.00000000 15.00000000" energy_frozen_part=0.00000000 Properties=species:S:1:pos:R:3:velocities:R:3:Z:I:1
H         6.43388991       8.95491501       5.64720875         0.00000000       0.00000000       0.00000000          1
H         6.08250428       6.20765426       6.01238602         0.00000000       0.00000000       0.00000000          1
H         5.53273114       7.36859580       3.53160868         0.00000000       0.00000000       0.00000000          1
H         4.34299873       8.01412195       7.24326079         0.00000000       0.00000000       0.00000000          1
H         3.44184448       6.42779423       5.12766093         0.00000000       0.00000000       0.00000000          1
H         3.79322440       9.17505921       4.76248693         0.00000000       0.00000000       0.00000000          1
6
pbc=[F, F, F] list_num_par=6 energy=-1.26974174 iter=20000 frozen=false Lattice="15.00000000 0.00000000 0.00000000 0.00000000 15.00000000 0.00000000 0.00000000 0.00000000 15.00000000" energy_frozen_part=0.00000000 Properties=species:S:1:pos:R:3:velocities:R:3:Z:I:1
H         5.86993561       9.22455720       5.44527650         0.00000000       0.00000000       0.00000000          1
H         5.76764242       6.53531168       6.19481052         0.00000000       0.00000000       0.00000000          1
H         5.10743019       7.28423805       3.58569265         0.00000000       0.00000000       0.00000000          1
H         3.87735306       8.33557381       7.18987788         0.00000000       0.00000000       0.00000000          1
H         3.11485346       6.39525996       5.33029547         0.00000000       0.00000000       0.00000000          1
H         3.21714753       9.08450756       4.58075945         0.00000000       0.00000000       0.00000000          1
6
pbc=[F, F, F] list_num_par=6 energy=-1.26974174 iter=20000 frozen=false Lattice="15.00000000 0.00000000 0.00000000 0.00000000 15.00000000 0.00000000 0.00000000 0.00000000 15.00000000" energy_frozen_part=0.00000000 Properties=species:S:1:pos:R:3:velocities:R:3:Z:I:1
H         5.86993648       9.22455883       5.44530585         0.00000000       0.00000000       0.00000000          1
H         5.76761205       6.53530920       6.19481406         0.00000000       0.00000000       0.00000000          1
H         5.10741212       7.28427265       3.58570557         0.00000000       0.00000000       0.00000000          1
H         3.87735940       8.33558639       7.18990183         0.00000000       0.00000000       0.00000000          1
H         3.11482238       6.39530499       5.33029526         0.00000000       0.00000000       0.00000000          1
H         3.21714828       9.08455037       4.58079051         0.00000000       0.00000000       0.00000000          1
6
pbc=[F, F, F] list_num_par=6 energy=-1.26974174 iter=20000 frozen=false Lattice="15.00000000 0.00000000 0.00000000 0.00000000 15.00000000 0.00000000 0.00000000 0.00000000 15.00000000" energy_frozen_part=0.00000000 Properties=species:S:1:pos:R:3:velocities:R:3:Z:I:1
H         6.43389046       8.95486337       5.64717840         0.00000000       0.00000000       0.00000000          1
H         6.08246366       6.20761320       6.01238121         0.00000000       0.00000000       0.00000000          1
H         5.53271618       7.36853615       3.53158850         0.00000000       0.00000000       0.00000000          1
H         4.34298259       8.01412593       7.24323519         0.00000000       0.00000000       0.00000000          1
H         3.44181215       6.42779736       5.12764664         0.00000000       0.00000000       0.00000000          1
H         3.79323634       9.17504584       4.76244732         0.00000000       0.00000000       0.00000000          1
6
pbc=[F, F, F] list_num_par=6 energy=-1.26974174 iter=20000 frozen=false Lattice="15.00000000 0.00000000 0.00000000 0.00000000 15.00000000 0.00000000 0.00000000 0.00000000 15.00000000" energy_frozen_part=0.00000000 Properties=species:S:1:pos:R:3:velocities:R:3:Z:I:1
H         5.86983416       9.22469463       5.44526330         0.00000000       0.00000000       0.00000000          1
H         5.76767529       6.53547359       6.19488441         0.00000000       0.00000000       0.00000000          1
H         5.10740663       7.28429419       3.58574617         0.00000000       0.00000000       0.00000000          1
H         3.87732271       8.33568715       7.18991477         0.00000000       0.00000000       0.00000000          1
H         3.11488770       6.39528264       5.33039543         0.00000000       0.00000000       0.00000000          1
H         3.21705103       9.08450358       4.58077512         0.00000000       0.00000000       0.00000000          1
6
pbc=[F, F, F] list_num_par=6 energy=-1.26974174 iter=20000 frozen=false Lattice="15.00000000 0.00000000 0.00000000 0.00000000 15.00000000 0.00000000 0.00000000 0.00000000 15.00000000" energy_frozen_part=0.00000000 Properties=species:S:1:pos:R:3:velocities:R:3:Z:I:1
H         5.86978320       9.22450663       5.44563665         0.00000000       0.00000000       0.00000000          1
H         5.76746181       6.53526901       6.19516014         0.00000000       0.00000000       0.00000000          1