6
pbc=[F, F, F] list_num_par=6 frozen=false iter=20000 energy=-1.26974174 Lattice="15.00000000 0.00000000 0.00000000 0.00000000 15.00000000 0.00000000 0.00000000 0.00000000 15.00000000" energy_frozen_part=0.00000000 Properties=species:S:1:pos:R:3:velocities:R:3:Z:I:1
H         0.02793091      10.13227670       3.98640950         0.00000000       0.00000000       0.00000000          1
H         1.04258823       7.94986947       2.56801146         0.00000000       0.00000000       0.00000000          1
H         1.72056077       8.30709500       5.25446462         0.00000000       0.00000000       0.00000000          1
H         2.62579587      10.88744486       4.68289632         0.00000000       0.00000000       0.00000000          1
H         3.64045923       8.70503188       3.26451033         0.00000000       0.00000000       0.00000000          1
H         1.94782199      10.53020447       1.99644444         0.00000000       0.00000000       0.00000000          1
6
pbc=[F, F, F] list_num_par=6 frozen=false iter=20000 energy=-1.26974174 Lattice="15.00000000 0.00000000 0.00000000 0.00000000 15.00000000 0.00000000 0.00000000 0.00000000 15.00000000" energy_frozen_part=0.00000000 Properties=species:S:1:pos:R:3:velocities:R:3:Z:I:1
H         0.02790760      10.13217456       3.98630351         0.00000000       0.00000000       0.00000000          1
H         1.04268275       7.94976407       2.56800400         0.00000000       0.00000000       0.00000000          1
H         1.72050055       8.30705065       5.25448954         0.00000000       0.00000000       0.00000000          1
H         2.62571422      10.88740211       4.68292806         0.00000000       0.00000000       0.00000000          1
H         3.64049210       8.70498598       3.26462427         0.00000000       0.00000000       0.00000000          1
H         1.94789779      10.53011532       1.99644367         0.00000000       0.00000000       0.00000000          1
6
pbc=[F, F, F] list_num_par=6 frozen=false iter=20000 energy=-1.26974174 Lattice="15.00000000 0.00000000 0.00000000 0.00000000 15.00000000 0.00000000 0.00000000 0.00000000 15.00000000" energy_frozen_part=0.00000000 Properties=species:S:1:pos:R:3:velocities:R:3:Z:I:1
H         0.02792041      10.13228990       3.98640428         0.00000000       0.00000000       0.00000000          1
H         1.04258943       7.94989132       2.56798495         0.00000000       0.00000000       0.00000000          1
H         1.72057268       8.30709506       5.25444065         0.00000000       0.00000000       0.00000000          1
H         2.62579729      10.88743756       4.68290143         0.00000000       0.00000000       0.00000000          1
H         3.64045831       8.70504683       3.26447588         0.00000000       0.00000000       0.00000000          1
H         1.94781026      10.53023971       1.99644965         0.00000000       0.00000000       0.00000000          1
6
pbc=[F, F, F] list_num_par=6 frozen=false iter=20000 energy=-1.26974174 Lattice="15.00000000 0.00000000 0.00000000 0.00000000 15.00000000 0.00000000 0.00000000 0.00000000 15.00000000" energy_frozen_part=0.00000000 Properties=species:S:1:pos:R:3:velocities:R:3:Z:I:1
H         8.88620194       3.75842557       2.57696273         0.00000000       0.00000000       0.00000000          1
H         6.55225976       2.72034802       3.70805596         0.00000000       0.00000000       0.00000000          1
H        10.42116239       2.22057860       4.33285655         0.00000000       0.00000000       0.00000000          1
H         8.50779660       0.99369578       2.70865204         0.00000000       0.00000000       0.00000000          1
H         8.46561957       3.94722833       5.33227488         0.00000000       0.00000000       0.00000000          1
H         8.08722093       1.18249312       5.46396187         0.00000000       0.00000000       0.00000000          1
6
pbc=[F, F, F] list_num_par=6 frozen=false iter=20000 energy=-1.26974174 Lattice="15.00000000 0.00000000 0.00000000 0.00000000 15.00000000 0.00000000 0.00000000 0.00000000 15.00000000" energy_frozen_part=0.00000000 Properties=species:S:1:pos:R:3:velocities:R:3:Z:I:1
H         0.02788442      10.13218136       3.98632983         0.00000000       0.00000000       0.00000000          1
H         1.04265973       7.94978185       2.56801339         0.00000000       0.00000000       0.00000000          1
H         1.72048181       8.30703008       5.25450130         0.00000000       0.00000000       0.00000000          1
H         2.62569972      10.88738008       4.68296432         0.00000000       0.00000000       0.00000000          1
H         3.64048095       8.70498357       3.26463507         0.00000000       0.00000000       0.00000000          1
H         1.94788807      10.53012490       1.99647267         0.00000000       0.00000000       0.00000000          1
6
pbc=[F, F, F] list_num_par=6 frozen=false iter=20000 energy=-1.26974174 Lattice="15.00000000 0.00000000 0.00000000 0.00000000 15.00000000 0.00000000 0.00000000 0.00000000 15.00000000" energy_frozen_part=0.00000000 Properties=species:S:1:pos:R:3:velocities:R:3:Z:I:1
H         8.88615995       3.75824606       2.57685680         0.00000000       0.00000000       0.00000000          1
H         6.55223222       2.72026989       3.70809629         0.00000000       0.00000000       0.00000000          1
H        10.42115511       2.22056848       4.33287686         0.00000000       0.00000000       0.00000000          1
H         8.50775256       0.99353086       2.70881094         0.00000000       0.00000000       0.00000000          1
H         8.46562998       3.94730558       5.33215815         0.00000000       0.00000000       0.00000000          1
H         8.08722631       1.18258564       5.46411381         0.00000000       0.00000000       0.00000000          1
6
pbc=[F, F, F] list_num_par=6 frozen=false iter=20000 energy=-1.26974174 Lattice="15.00000000 0.00000000 0.00000000 0.00000000 15.00000000 0.00000000 0.00000000 0.00000000 15.00000000" energy_frozen_part=0.00000000 Properties=species:S:1:pos:R:3:velocities:R:3:Z:I:1
H         0.02766773      10.13253078       3.98604784         0.00000000       0.00000000       0.00000000          1
H         1.04247305       7.94989076       2.56810546         0.00000000       0.00000000       0.00000000          1
H         1.72024693       8.30760650       5.25454877         0.00000000       0.00000000       0.00000000          1
H         2.62546914      10.88787269       4.68258931         0.00000000       0.00000000       0.00000000          1
H         3.64027159       8.70523242       3.26465481         0.00000000       0.00000000       0.00000000          1
H         1.94768611      10.53015641       1.99614844         0.00000000       0.00000000       0.00000000          1
6
pbc=[F, F, F] list_num_par=6 frozen=false iter=20000 energy=-1.26974174 Lattice="15.00000000 0.00000000 0.00000000 0.00000000 15.00000000 0.00000000 0.00000000 0.00000000 15.00000000" energy_frozen_part=0.00000000 Properties=species:S:1:pos:R:3:velocities:R:3:Z:I:1
H         0.02772104      10.13252656       3.98614686         0.00000000       0.00000000       0.00000000          1
H         1.04248191       7.94988391       2.56819144         0.00000000       0.00000000       0.00000000          1
H         1.72029561       8.30758396       5.25462448         0.00000000       0.00000000       0.00000000          1
H         2.62554776      10.88783015       4.68266124         0.00000000       0.00000000       0.00000000          1
H         3.64030064       8.70517560       3.26470900         0.00000000       0.00000000       0.00000000          1
H         1.94772716      10.53013888       1.99623649         0.00000000       0.00000000       0.00000000          1
6
pbc=[F, F, F] list_num_par=6 frozen=false iter=20000 energy=-1.26974174 Lattice="15.00000000 0.00000000 0.00000000 0.00000000 15.00000000 0.00000000 0.00000000 0.00000000 15.00000000" energy_frozen_part=0.00000000 Properties=species:S:1:pos:R:3:velocities:R:3:Z:I:1
H         8.88614506       3.75824829       2.57685911         0.00000000       0.00000000       0.00000000          1
H         6.55223083       2.72026591       3.70810886         0.00000000       0.00000000       0.00000000          1
H        10.42114315       2.22057189       4.33288580         0.00000000       0.00000000       0.00000000          1
H         8.50776309       0.99352818       2.70882952         0.00000000       0.00000000       0.00000000          1
H         8.46562584       3.94731603       5.33216713         0.00000000       0.00000000       0.00000000          1
H         8.08722779       1.18259334       5.46413571         0.00000000       0.00000000       0.00000000          1
6
pbc=[F, F, F] list_num_par=6 frozen=false iter=20000 energy=-1.26974174 Lattice="15.00000000 0.00000000 0.00000000 0.00000000 15.00000000 0.00000000 0.00000000 0.00000000 15.00000000" energy_frozen_part=0.00000000 Properties=species:S:1:pos:R:3:velocities:R:3:Z:I:1
H         0.02765315      10.13253765       3.98602631         0.00000000       0.00000000       0.00000000          1
H         1.04247204       7.94990175       2.56810710         0.00000000       0.00000000       0.00000000          1
H         1.72023813       8.30761529       5.25454223         0.00000000       0.00000000       0.00000000          1
H         2.62546139      10.88787141       4.68258379         0.00000000       0.00000000       0.00000000          1
H         3.64027430       8.70523093       3.26464845         0.00000000       0.00000000       0.00000000          1
H         1.94769362      10.53015380       1.99614319         0.00000000       0.00000000       0.00000000          1
6
pbc=[F, F, F] list_num_par=6 frozen=false iter=20000 energy=-1.26974174 Lattice="15.00000000 0.00000000 0.00000000 0.00000000 15.00000000 0.00000000 0.00000000 0.00000000 15.00000000" energy_frozen_part=0.00000000 Properties=species:S:1:pos:R:3:velocities:R:3:Z:I:1
H         8.88543169       3.75896216       2.57759947         0.00000000       0.00000000       0.00000000          1
H         6.55162036       2.72100792       3.70907616         0.00000000       0.00000000       0.00000000          1
H        10.42058640       2.22153644       4.33371146         0.00000000       0.00000000       0.00000000          1
H         8.50715498       0.99423764       2.70988075         0.00000000       0.00000000       0.00000000          1
H         8.46504740       3.94830402       5.33290276         0.00000000       0.00000000       0.00000000          1
H         8.08677053       1.18358579       5.46519089         0.00000000       0.00000000       0.00000000          1
6
pbc=[F, F, F] list_num_par=6 frozen=false iter=20000 energy=-1.26974174 Lattice="15.00000000 0.00000000 0.00000000 0.00000000 15.00000000 0.00000000 0.00000000 0.00000000 15.00000000" energy_frozen_part=0.00000000 Properties=species:S:1:pos:R:3:velocities:R:3:Z:I:1
H         0.02764313      10.13250109       3.98605122         0.00000000       0.00000000       0.00000000          1
H         1.04243771       7.94990141       2.56805746         0.00000000       0.00000000       0.00000000          1
H         1.72018589       8.30751862       5.25451248         0.00000000       0.00000000       0.00000000          1
H         2.62544324      10.88778481       4.68264167         0.00000000       0.00000000       0.00000000          1
H         3.64024371       8.70517232       3.26465344         0.00000000       0.00000000       0.00000000          1
H         1.94769972      10.53015498       1.99619064         0.00000000       0.00000000       0.00000000          1
6
pbc=[F, F, F] list_num_par=6 frozen=false iter=20000 energy=-1.26974174 Lattice="15.00000000 0.00000000 0.00000000 0.00000000 15.00000000 0.00000000 0.00000000 0.00000000 15.00000000" energy_frozen_part=0.00000000 Properties=species:S:1:pos:R:3:velocities:R:3:Z:I:1
H         0.02786921      10.13217986       3.98633889         0.00000000       0.00000000       0.00000000          1
H         1.04267416       7.94978002       2.56803733         0.00000000       0.00000000       0.00000000          1
H         1.72047915       8.30706354       5.25452774         0.00000000       0.00000000       0.00000000          1
H         2.62567746      10.88741947       4.68296241         0.00000000       0.00000000       0.00000000          1
H         3.64047620       8.70500915       3.26467612         0.00000000       0.00000000       0.00000000          1
H         1.94786876      10.53012305       1.99648031         0.00000000       0.00000000       0.00000000          1
6
pbc=[F, F, F] list_num_par=6 frozen=false iter=20000 energy=-1.26974174 Lattice="15.00000000 0.00000000 0.00000000 0.00000000 15.00000000 0.00000000 0.00000000 0.00000000 15.00000000" energy_frozen_part=0.00000000 Properties=species:S:1:pos:R:3:velocities:R:3:Z:I:1
H         8.88530225       3.75897241       2.57761235         0.00000000       0.00000000       0.00000000          1
H         6.55168389       2.72058446       3.70911450         0.00000000       0.00000000       0.00000000          1
H        10.42074685       2.22188409       4.33375530         0.00000000       0.00000000       0.00000000          1
H         8.50756433       0.99417395       2.70995760         0.00000000       0.00000000       0.00000000          1
H         8.46486402       3.94829139       5.33292129         0.00000000       0.00000000       0.00000000          1
H         8.08713372       1.18349569       5.46525396         0.00000000       0.00000000       0.00000000          1
6
pbc=[F, F, F] list_num_par=6 frozen=false iter=20000 energy=-1.26974174 Lattice="15.00000000 0.00000000 0.00000000 0.00000000 15.00000000 0.00000000 0.00000000 0.00000000 15.00000000" energy_frozen_part=0.00000000 Properties=species:S:1:pos:R:3:velocities:R:3:Z:I:1
H         0.02770613      10.13251735       3.98611106         0.00000000       0.00000000       0.00000000          1
H         1.04249721       7.94988121       2.56816887         0.00000000       0.00000000       0.00000000          1
H         1.72027107       8.30757823       5.25461044         0.00000000       0.00000000       0.00000000          1
H         2.62552266      10.88782371       4.68265651         0.00000000       0.00000000       0.00000000          1
H         3.64030541       8.70517963       3.26471007         0.00000000       0.00000000       0.00000000          1
H         1.94774523      10.53013180       1.99622505         0.00000000       0.00000000       0.00000000          1
6
pbc=[F, F, F] list_num_par=6 frozen=false iter=20000 energy=-1.26974174 Lattice="15.00000000 0.00000000 0.00000000 0.00000000 15.00000000 0.00000000 0.00000000 0.00000000 15.00000000" energy_frozen_part=0.00000000 Properties=species:S:1:pos:R:3:velocities:R:3:Z:I:1
H         0.02764449      10.13252920       3.98604306         0.00000000       0.00000000       0.00000000          1
H         1.04242176       7.94988059       2.56809553         0.00000000       0.00000000       0.00000000          1
H         1.72018367       8.30755679       5.25453931         0.00000000       0.00000000       0.00000000          1
H         2.62546577      10.88779603       4.68261032         0.00000000       0.00000000       0.00000000          1
H         3.64023122       8.70514865       3.26465154         0.00000000       0.00000000       0.00000000          1
H         1.94769266      10.53012709       1.99616123         0.00000000       0.00000000       0.00000000          1
6
pbc=[F, F, F] list_num_par=6 frozen=false iter=20000 energy=-1.26974174 Lattice="15.00000000 0.00000000 0.00000000 0.00000000 15.00000000 0.00000000 0.00000000 0.00000000 15.00000000" energy_frozen_part=0.00000000 Properties=species:S:1:pos:R:3:velocities:R:3:Z:I:1
H         0.02772085      10.13253094       3.98614811         0.00000000       0.00000000       0.00000000          1
H         1.04247934       7.94988478       2.56818368         0.00000000       0.00000000       0.00000000          1
H         1.72029756       8.30758699       5.25461534         0.00000000       0.00000000       0.00000000          1
H         2.62555190      10.88782672       4.68265952         0.00000000       0.00000000       0.00000000          1
H         3.64030325       8.70517679       3.26469332         0.00000000       0.00000000       0.00000000          1
H         1.94773104      10.53013676       1.99623531         0.00000000       0.00000000       0.00000000          1
6
pbc=[F, F, F] list_num_par=6 frozen=false iter=20000 energy=-1.26974174 Lattice="15.00000000 0.00000000 0.00000000 0.00000000 15.00000000 0.00000000 0.00000000 0.00000000 15.00000000" energy_frozen_part=0.00000000 Properties=species:S:1:pos:R:3:velocities:R:3:Z:I:1
H         0.02764117      10.13252183       3.98604045         0.00000000       0.00000000       0.00000000          1
H         1.04245949       7.94989208       2.56810239         0.00000000       0.00000000       0.00000000          1
H         1.72022126       8.30758611       5.25454106         0.00000000       0.00000000       0.00000000          1
H         2.62544686      10.88785131       4.68260638         0.00000000       0.00000000       0.00000000          1
H         3.64025788       8.70523019       3.26466041         0.00000000       0.00000000       0.00000000          1
H         1.94768203      10.53015605       1.99616456         0.00000000       0.00000000       0.00000000          1
6
pbc=[F, F, F] list_num_par=6 frozen=false iter=20000 energy=-1.26974174 Lattice="15.00000000 0.00000000 0.00000000 0.00000000 15.00000000 0.00000000 0.00000000 0.00000000 15.00000000" energy_frozen_part=0.00000000 Properties=species:S:1:pos:R:3:velocities:R:3:Z:I:1
H         0.02730865      10.13239474       3.98628371         0.00000000       0.00000000       0.00000000          1
H         1.04162566       7.95036602       2.56706148         0.00000000       0.00000000       0.00000000          1
H         1.71972518       8.30650221       5.25361963         0.00000000       0.00000000       0.00000000          1
H         2.62530255      10.88692773       4.68298396         0.00000000       0.00000000       0.00000000          1
H         3.63962661       8.70490338       3.26375766         0.00000000       0.00000000       0.00000000          1
H         1.94720694      10.53078211       1.99641053         0.00000000       0.00000000       0.00000000          1
6
pbc=[F, F, F] list_num_par=6 frozen=false iter=20000 energy=-1.26974174 Lattice="15.00000000 0.00000000 0.00000000 0.00000000 15.00000000 0.00000000 0.00000000 0.00000000 15.00000000" energy_frozen_part=0.00000000 Properties=species:S:1:pos:R:3:velocities:R:3:Z:I:1
H         0.02810604      10.13252577       3.98639397         0.00000000       0.00000000       0.00000000          1
H         1.04248229       7.95009295       2.56783694         0.00000000       0.00000000       0.00000000          1
H         1.72079369       8.30722827       5.25421290         0.00000000       0.00000000       0.00000000          1
H         2.62608268      10.88753401       4.68259365         0.00000000       0.00000000       0.00000000          1
H         3.64047112       8.70510595       3.26403252         0.00000000       0.00000000       0.00000000          1
H         1.94777991      10.53039554       1.99621004         0.00000000       0.00000000       0.00000000          1
6
pbc=[F, F, F] list_num_par=6 frozen=false iter=20000 energy=-1.26974174 Lattice="15.00000000 0.00000000 0.00000000 0.00000000 15.00000000 0.00000000 0.00000000 0.00000000 15.00000000" energy_frozen_part=0.00000000 Properties=species:S:1:pos:R:3:velocities:R:3:Z:I:1
H         0.02809702      10.13257894       3.98626300         0.00000000       0.00000000       0.00000000          1
H         1.04265316       7.95006729       2.56796343         0.00000000       0.00000000       0.00000000          1
H         1.72078934       8.30747789       5.25435712         0.00000000       0.00000000       0.00000000          1
H         2.62600841      10.88777445       4.68255618         0.00000000       0.00000000       0.00000000          1
H         3.64057265       8.70524880       3.26426385         0.00000000       0.00000000       0.00000000          1
H         1.94788329      10.53035230       1.99616882         0.00000000       0.00000000       0.00000000          1
6
pbc=[F, F, F] list_num_par=6 frozen=false iter=20000 energy=-1.26974174 Lattice="15.00000000 0.00000000 0.00000000 0.00000000 15.00000000 0.00000000 0.00000000 0.00000000 15.00000000" energy_frozen_part=0.00000000 Properties=species:S:1:pos:R:3:velocities:R:3:Z:I:1
H         0.02787749      10.13217468       3.98635499         0.00000000       0.00000000       0.00000000          1
H         1.04268626       7.94976964       2.56804849         0.00000000       0.00000000       0.00000000          1
H         1.72051063       8.30706144       5.25452993         0.00000000       0.00000000       0.00000000          1
H         2.62569467      10.88742197       4.68296396         0.00000000       0.00000000       0.00000000          1
H         3.64049098       8.70501795       3.26466157         0.00000000       0.00000000       0.00000000          1
H         1.94786557      10.53012276       1.99648186         0.00000000       0.00000000       0.00000000          1
6
pbc=[F, F, F] list_num_par=6 frozen=false iter=20000 energy=-1.26974174 Lattice="15.00000000 0.00000000 0.00000000 0.00000000 15.00000000 0.00000000 0.00000000 0.00000000 15.00000000" energy_frozen_part=0.00000000 Properties=species:S:1:pos:R:3:velocities:R:3:Z:I:1
H         8.88529405       3.75892642       2.57758605         0.00000000       0.00000000       0.00000000          1
H         6.55165637       2.72062362       3.70910173         0.00000000       0.00000000       0.00000000          1
H        10.42070352       2.22178805       4.33371173         0.00000000       0.00000000       0.00000000          1
H         8.50746018       0.99414775       2.70992607         0.00000000       0.00000000       0.00000000          1
H         8.46489464       3.94826443       5.33289044         0.00000000       0.00000000       0.00000000          1
H         8.08705780       1.18348477       5.46522961         0.00000000       0.00000000       0.00000000          1
6
pbc=[F, F, F] list_num_par=6 frozen=false iter=20000 energy=-1.26974174 Lattice="15.00000000 0.00000000 0.00000000 0.00000000 15.00000000 0.00000000 0.00000000 0.00000000 15.00000000" energy_frozen_part=0.00000000 Properties=species:S:1:pos:R:3:velocities:R:3:Z:I:1
H         0.02794174      10.13227668       3.98642438         0.00000000       0.00000000       0.00000000          1
H         1.04258787       7.94987464       2.56800686         0.00000000       0.00000000       0.00000000          1
H         1.72057672       8.30707759       5.25445822         0.00000000       0.00000000       0.00000000          1
H         2.62580524      10.88742835       4.68292383         0.00000000       0.00000000       0.00000000          1
H         3.64046190       8.70503172       3.26450174         0.00000000       0.00000000       0.00000000          1
H         1.94782675      10.53022202       1.99646284         0.00000000       0.00000000       0.00000000          1
6
pbc=[F, F, F] list_num_par=6 frozen=false iter=20000 energy=-1.26974174 Lattice="15.00000000 0.00000000 0.00000000 0.00000000 15.00000000 0.00000000 0.00000000 0.00000000 15.00000000" energy_frozen_part=0.00000000 Properties=species:S:1:pos:R:3:velocities:R:3:Z:I:1
H         0.02788366      10.13215831       3.98634587         0.00000000       0.00000000       0.00000000          1
H         1.04266845       7.94976517       2.56801152         0.00000000       0.00000000       0.00000000          1
H         1.72050543       8.30702485       5.25449578         0.00000000       0.00000000       0.00000000          1
H         2.62570342      10.88738836       4.68295185         0.00000000       0.00000000       0.00000000          1
H         3.64048762       8.70499940       3.26462977         0.00000000       0.00000000       0.00000000          1
H         1.94785785      10.53012783       1.99646928         0.00000000       0.00000000       0.00000000          1
6
pbc=[F, F, F] list_num_par=6 frozen=false iter=20000 energy=-1.26974174 Lattice="15.00000000 0.00000000 0.00000000 0.00000000 15.00000000 0.00000000 0.00000000 0.00000000 15.00000000" energy_frozen_part=0.00000000 Properties=species:S:1:pos:R:3:velocities:R:3:Z:I:1
H         0.02769740      10.13252154       3.98614566         0.00000000       0.00000000       0.00000000          1
H         1.04247911       7.94988182       2.56820283         0.00000000       0.00000000       0.00000000          1
H         1.72029347       8.30760955       5.25463492         0.00000000       0.00000000       0.00000000          1
H         2.62550902      10.88786473       4.68264811         0.00000000       0.00000000       0.00000000          1
H         3.64029580       8.70521147       3.26471750         0.00000000       0.00000000       0.00000000          1
H         1.94769530      10.53013607       1.99622863         0.00000000       0.00000000       0.00000000          1
6
pbc=[F, F, F] list_num_par=6 frozen=false iter=20000 energy=-1.26974174 Lattice="15.00000000 0.00000000 0.00000000 0.00000000 15.00000000 0.00000000 0.00000000 0.00000000 15.00000000" energy_frozen_part=0.00000000 Properties=species:S:1:pos:R:3:velocities:R:3:Z:I:1
H         0.02791479      10.13226578       3.98639325         0.00000000       0.00000000       0.00000000          1
H         1.04258917       7.94986887       2.56798477         0.00000000       0.00000000       0.00000000          1
H         1.72055228       8.30706461       5.25443995         0.00000000       0.00000000       0.00000000          1
H         2.62577888      10.88741253       4.68290346         0.00000000       0.00000000       0.00000000          1
H         3.64045082       8.70503017       3.26448128         0.00000000       0.00000000       0.00000000          1
H         1.94780482      10.53021828       1.99644298         0.00000000       0.00000000       0.00000000          1
6
pbc=[F, F, F] list_num_par=6 frozen=false iter=20000 energy=-1.26974174 Lattice="15.00000000 0.00000000 0.00000000 0.00000000 15.00000000 0.00000000 0.00000000 0.00000000 15.00000000" energy_frozen_part=0.00000000 Properties=species:S:1:pos:R:3:velocities:R:3:Z:I:1
H         8.88615078       3.75825468       2.57684821         0.00000000       0.00000000       0.00000000          1
H         6.55223823       2.72025847       3.70810266         0.00000000       0.00000000       0.00000000          1
H        10.42115554       2.22056959       4.33286629         0.00000000       0.00000000       0.00000000          1
H         8.50775725       0.99353197       2.70879923         0.00000000       0.00000000       0.00000000          1
H         8.46563283       3.94730125       5.33215682         0.00000000       0.00000000       0.00000000          1
H         8.08724601       1.18257582       5.46411119         0.00000000       0.00000000       0.00000000          1
6
pbc=[F, F, F] list_num_par=6 frozen=false iter=20000 energy=-1.26974174 Lattice="15.00000000 0.00000000 0.00000000 0.00000000 15.00000000 0.00000000 0.00000000 0.00000000 15.00000000" energy_frozen_part=0.00000000 Properties=species:S:1:pos:R:3:velocities:R:3:Z:I:1
H         0.02789028      10.13217852       3.98634763         0.00000000       0.00000000       0.00000000          1
H         1.04266776       7.94979148       2.56800146         0.00000000       0.00000000       0.00000000          1
H         1.72050305       8.30702876       5.25448858         0.00000000       0.00000000       0.00000000          1
H         2.62570838      10.88738395       4.68296622         0.00000000       0.00000000       0.00000000          1
H         3.64049643       8.70499583       3.26462760         0.00000000       0.00000000       0.00000000          1
H         1.94788657      10.53014713       1.99648525         0.00000000       0.00000000       0.00000000          1
6
pbc=[F, F, F] list_num_par=6 frozen=false iter=20000 energy=-1.26974174 Lattice="15.00000000 0.00000000 0.00000000 0.00000000 15.00000000 0.00000000 0.00000000 0.00000000 15.00000000" energy_frozen_part=0.00000000 Properties=species:S:1:pos:R:3:velocities:R:3:Z:I:1
H         8.88527935       3.75894202       2.57759041         0.00000000       0.00000000       0.00000000          1
H         6.55165578       2.72062368       3.70912291         0.00000000       0.00000000       0.00000000          1
H        10.42071022       2.22180485       4.33370185         0.00000000       0.00000000       0.00000000          1
H         8.50746413       0.99416165       2.70992206         0.00000000       0.00000000       0.00000000          1
H         8.46489455       3.94826506       5.33290229         0.00000000       0.00000000       0.00000000          1
H         8.08707756       1.18347843       5.46522988         0.00000000       0.00000000       0.00000000          1
6
pbc=[F, F, F] list_num_par=6 frozen=false iter=20000 energy=-1.26974174 Lattice="15.00000000 0.00000000 0.00000000 0.00000000 15.00000000 0.00000000 0.00000000 0.00000000 15.00000000" energy_frozen_part=0.00000000 Properties=species:S:1:pos:R:3:velocities:R:3:Z:I:1
H         8.88527182       3.75895170       2.57759725         0.00000000       0.00000000       0.00000000          1
H         6.55165471       2.72061820       3.70912838         0.00000000       0.00000000       0.00000000          1