6
pbc=[F, F, F] list_num_par=6 frozen=false iter=9 energy=54.37764379 Lattice="15.00000000 0.00000000 0.00000000 0.00000000 15.00000000 0.00000000 0.00000000 0.00000000 15.00000000" energy_frozen_part=0.00000000 Properties=species:S:1:pos:R:3:velocities:R:3:Z:I:1
H         3.10793195      14.84872646      14.81440613         0.00000000       0.00000000       0.00000000          1
H         9.77649287       8.62353442      12.72734317         0.00000000       0.00000000       0.00000000          1
H         4.17040664       0.49887628       5.89146268         0.00000000       0.00000000       0.00000000          1
H         3.78409348       1.77393948       9.68734881         0.00000000       0.00000000       0.00000000          1
H        14.87839784       5.52883009       1.53184090         0.00000000       0.00000000       0.00000000          1
H        13.95169002       4.16634803       1.57467246         0.00000000       0.00000000       0.00000000          1
6
pbc=[F, F, F] list_num_par=6 frozen=false iter=19 energy=4.03467775 Lattice="15.00000000 0.00000000 0.00000000 0.00000000 15.00000000 0.00000000 0.00000000 0.00000000 15.00000000" energy_frozen_part=0.00000000 Properties=species:S:1:pos:R:3:velocities:R:3:Z:I:1
H         3.43527202      12.73723794       5.46171501         0.00000000       0.00000000       0.00000000          1
H        12.49483262       4.72565673       3.39413712         0.00000000       0.00000000       0.00000000          1
H        11.46522018      14.36489490       9.28001457         0.00000000       0.00000000       0.00000000          1
H         5.17905180      12.41683324       4.51729941         0.00000000       0.00000000       0.00000000          1
H        10.13579270       0.05324607      14.61588523         0.00000000       0.00000000       0.00000000          1
H         6.38994595       7.46544163      11.80895877         0.00000000       0.00000000       0.00000000          1
6
pbc=[F, F, F] list_num_par=6 frozen=false iter=29 energy=0.11805097 Lattice="15.00000000 0.00000000 0.00000000 0.00000000 15.00000000 0.00000000 0.00000000 0.00000000 15.00000000" energy_frozen_part=0.00000000 Properties=species:S:1:pos:R:3:velocities:R:3:Z:I:1
H         9.60419983       5.10627946       1.31216461         0.00000000       0.00000000       0.00000000          1
H         7.67678797       7.71223139       3.03478236         0.00000000       0.00000000       0.00000000          1
H         8.12339935       6.71757626       5.14911524         0.00000000       0.00000000       0.00000000          1
H         3.23226472       7.05757449       2.07913562         0.00000000       0.00000000       0.00000000          1
H         7.98321142       1.52932407      13.10186555         0.00000000       0.00000000       0.00000000          1
H         9.96943916       2.21804404       7.79885372         0.00000000       0.00000000       0.00000000          1
6
pbc=[F, F, F] list_num_par=6 frozen=false iter=39 energy=-0.00334149 Lattice="15.00000000 0.00000000 0.00000000 0.00000000 15.00000000 0.00000000 0.00000000 0.00000000 15.00000000" energy_frozen_part=0.00000000 Properties=species:S:1:pos:R:3:velocities:R:3:Z:I:1
H         8.71974531       4.95495490       0.79959562         0.00000000       0.00000000       0.00000000          1
H        13.43262382       0.25195580      13.23692870         0.00000000       0.00000000       0.00000000          1
H         5.91998254       2.07017331      10.37268590         0.00000000       0.00000000       0.00000000          1
H         5.83795545      11.97717320       3.51250419         0.00000000       0.00000000       0.00000000          1
H         9.07735810       6.00776214      14.50906249         0.00000000       0.00000000       0.00000000          1
H         1.66212205       5.27895005      14.95564650         0.00000000       0.00000000       0.00000000          1
6
pbc=[F, F, F] list_num_par=6 frozen=false iter=49 energy=-0.00512695 Lattice="15.00000000 0.00000000 0.00000000 0.00000000 15.00000000 0.00000000 0.00000000 0.00000000 15.00000000" energy_frozen_part=0.00000000 Properties=species:S:1:pos:R:3:velocities:R:3:Z:I:1
H        10.66156766      13.66049312       3.10123929         0.00000000       0.00000000       0.00000000          1
H         0.34682213       2.53618739       0.02381016         0.00000000       0.00000000       0.00000000          1
H         8.98034443       1.62769050       2.85080888         0.00000000       0.00000000       0.00000000          1
H         0.16788334       5.13583989      10.49080916         0.00000000       0.00000000       0.00000000          1
H         0.18777008      14.40729496      13.75858555         0.00000000       0.00000000       0.00000000          1
H         3.53039020       1.37049812       9.31082864         0.00000000       0.00000000       0.00000000          1
6
pbc=[F, F, F] list_num_par=6 frozen=false iter=59 energy=-0.00658502 Lattice="15.00000000 0.00000000 0.00000000 0.00000000 15.00000000 0.00000000 0.00000000 0.00000000 15.00000000" energy_frozen_part=0.00000000 Properties=species:S:1:pos:R:3:velocities:R:3:Z:I:1
H         4.79699730      14.76031540      12.44490066         0.00000000       0.00000000       0.00000000          1
H         3.86359539       8.51885993      10.23205889         0.00000000       0.00000000       0.00000000          1
H        11.03776622      12.03954740      12.39215644         0.00000000       0.00000000       0.00000000          1
H         8.27229674       1.90916576      14.99721871         0.00000000       0.00000000       0.00000000          1
H         8.71898466       4.50034050       6.43968269         0.00000000       0.00000000       0.00000000          1
H         0.34753923       5.67238140       7.22658401         0.00000000       0.00000000       0.00000000          1
6
pbc=[F, F, F] list_num_par=6 frozen=false iter=69 energy=-0.00928009 Lattice="15.00000000 0.00000000 0.00000000 0.00000000 15.00000000 0.00000000 0.00000000 0.00000000 15.00000000" energy_frozen_part=0.00000000 Properties=species:S:1:pos:R:3:velocities:R:3:Z:I:1
H         9.74966417       0.24105866      10.44263980         0.00000000       0.00000000       0.00000000          1
H         8.84840432      14.68737365      11.19420790         0.00000000       0.00000000       0.00000000          1
H        10.34334925       6.36760131       5.44324991         0.00000000       0.00000000       0.00000000          1
H         3.01404689       1.17151523       1.46270544         0.00000000       0.00000000       0.00000000          1
H         5.84611124       5.42706641       1.25921508         0.00000000       0.00000000       0.00000000          1
H        14.43674763      13.40932428       9.50384790         0.00000000       0.00000000       0.00000000          1
6
pbc=[F, F, F] list_num_par=6 frozen=false iter=79 energy=-0.01283864 Lattice="15.00000000 0.00000000 0.00000000 0.00000000 15.00000000 0.00000000 0.00000000 0.00000000 15.00000000" energy_frozen_part=0.00000000 Properties=species:S:1:pos:R:3:velocities:R:3:Z:I:1
H         9.39113260       2.40311533      10.58225643         0.00000000       0.00000000       0.00000000          1
H        14.30229185       6.47115913       8.01286048         0.00000000       0.00000000       0.00000000          1
H         3.74584698      14.55946268      13.03594827         0.00000000       0.00000000       0.00000000          1
H        11.87169501       2.32123899       5.11058455         0.00000000       0.00000000       0.00000000          1
H         2.42215255       2.82131077      13.91096419         0.00000000       0.00000000       0.00000000          1
H         0.22388059      11.26019053      12.03850386         0.00000000       0.00000000       0.00000000          1
6
pbc=[F, F, F] list_num_par=6 frozen=false iter=89 energy=-0.01508473 Lattice="15.00000000 0.00000000 0.00000000 0.00000000 15.00000000 0.00000000 0.00000000 0.00000000 15.00000000" energy_frozen_part=0.00000000 Properties=species:S:1:pos:R:3:velocities:R:3:Z:I:1
H         9.90473781      12.73384684       5.63786554         0.00000000       0.00000000       0.00000000          1
H         8.74201728       6.83954469       3.59643863         0.00000000       0.00000000       0.00000000          1
H         8.15655175       2.62855326      14.71219896         0.00000000       0.00000000       0.00000000          1
H         1.88012458       9.66912673       4.28845173         0.00000000       0.00000000       0.00000000          1
H         4.00782931      13.58388325       3.15590361         0.00000000       0.00000000       0.00000000          1
H         6.85414219      12.07339167      11.18324026         0.00000000       0.00000000       0.00000000          1
6
pbc=[F, F, F] list_num_par=6 frozen=false iter=99 energy=-0.01987632 Lattice="15.00000000 0.00000000 0.00000000 0.00000000 15.00000000 0.00000000 0.00000000 0.00000000 15.00000000" energy_frozen_part=0.00000000 Properties=species:S:1:pos:R:3:velocities:R:3:Z:I:1
H         1.00781123       9.63905939      11.15835368         0.00000000       0.00000000       0.00000000          1
H         8.80377326       2.95182512       4.50626181         0.00000000       0.00000000       0.00000000          1
H         4.49193613      13.82143732       9.86081265         0.00000000       0.00000000       0.00000000          1
H         3.85083956       6.19807476       9.93543263         0.00000000       0.00000000       0.00000000          1
H         0.59876400       1.98467075       8.85580453         0.00000000       0.00000000       0.00000000          1
H        13.91063498       5.04109442       6.13739641         0.00000000       0.00000000       0.00000000          1
6
pbc=[F, F, F] list_num_par=6 frozen=false iter=109 energy=-0.02742134 Lattice="15.00000000 0.00000000 0.00000000 0.00000000 15.00000000 0.00000000 0.00000000 0.00000000 15.00000000" energy_frozen_part=0.00000000 Properties=species:S:1:pos:R:3:velocities:R:3:Z:I:1
H         1.01967357      13.63891715       3.92796460         0.00000000       0.00000000       0.00000000          1
H        14.30819963       0.52632540       5.84263551         0.00000000       0.00000000       0.00000000          1
H         1.47884603       1.28046500       8.93436107         0.00000000       0.00000000       0.00000000          1
H         5.71691916      10.59720506       4.10584912         0.00000000       0.00000000       0.00000000          1
H         4.09935924       4.26933817       8.15127098         0.00000000       0.00000000       0.00000000          1
H         7.05647665       7.00430476       0.06101526         0.00000000       0.00000000       0.00000000          1
6
pbc=[F, F, F] list_num_par=6 frozen=false iter=119 energy=-0.03420260 Lattice="15.00000000 0.00000000 0.00000000 0.00000000 15.00000000 0.00000000 0.00000000 0.00000000 15.00000000" energy_frozen_part=0.00000000 Properties=species:S:1:pos:R:3:velocities:R:3:Z:I:1
H        10.90352253      11.17096721      11.49752174         0.00000000       0.00000000       0.00000000          1
H         4.23380882      14.00281370       5.09332047         0.00000000       0.00000000       0.00000000          1
H         6.27788044       8.44995625      11.97231906         0.00000000       0.00000000       0.00000000          1
H         0.54338431       9.16743581       5.16077923         0.00000000       0.00000000       0.00000000          1
H         3.61946457       9.27789585       1.81624359         0.00000000       0.00000000       0.00000000          1
H        13.16590878      12.36559634       8.05846036         0.00000000       0.00000000       0.00000000          1
6
pbc=[F, F, F] list_num_par=6 frozen=false iter=129 energy=-0.03937202 Lattice="15.00000000 0.00000000 0.00000000 0.00000000 15.00000000 0.00000000 0.00000000 0.00000000 15.00000000" energy_frozen_part=0.00000000 Properties=species:S:1:pos:R:3:velocities:R:3:Z:I:1
H         9.59826306       9.56519355      12.00269172         0.00000000       0.00000000       0.00000000          1
H        12.24055884       5.78572786       3.94271119         0.00000000       0.00000000       0.00000000          1
H         8.76290028       5.51871862       5.80857342         0.00000000       0.00000000       0.00000000          1
H         4.62101652       8.23013210       0.98843393         0.00000000       0.00000000       0.00000000          1
H        13.93026692       3.48137628      11.56543977         0.00000000       0.00000000       0.00000000          1
H        10.65312274      10.15403528       6.68635699         0.00000000       0.00000000       0.00000000          1
6
pbc=[F, F, F] list_num_par=6 frozen=false iter=139 energy=-0.04655636 Lattice="15.00000000 0.00000000 0.00000000 0.00000000 15.00000000 0.00000000 0.00000000 0.00000000 15.00000000" energy_frozen_part=0.00000000 Properties=species:S:1:pos:R:3:velocities:R:3:Z:I:1
H         4.87880117      13.10620145       9.78098550         0.00000000       0.00000000       0.00000000          1
H         9.05055084       1.24855753       8.08977566         0.00000000       0.00000000       0.00000000          1
H        13.73824848       6.65079244       4.53562799         0.00000000       0.00000000       0.00000000          1
H        14.13070268       0.88708732       6.92313056         0.00000000       0.00000000       0.00000000          1
H        14.88476632       0.55714788       3.34332356         0.00000000       0.00000000       0.00000000          1
H        10.27292294       6.91357341      10.69079299         0.00000000       0.00000000       0.00000000          1
6
pbc=[F, F, F] list_num_par=6 frozen=false iter=149 energy=-0.05213803 Lattice="15.00000000 0.00000000 0.00000000 0.00000000 15.00000000 0.00000000 0.00000000 0.00000000 15.00000000" energy_frozen_part=0.00000000 Properties=species:S:1:pos:R:3:velocities:R:3:Z:I:1
H         2.80512613       8.12483779       8.28327374         0.00000000       0.00000000       0.00000000          1
H        12.83676273       2.98481421       4.01554696         0.00000000       0.00000000       0.00000000          1
H        14.26550175       7.86819325       3.91934360         0.00000000       0.00000000       0.00000000          1
H        10.69232843       2.71600636       6.89294022         0.00000000       0.00000000       0.00000000          1
H         7.33510690       8.79682631      10.54875567         0.00000000       0.00000000       0.00000000          1
H         4.33644613       9.56820456       1.01705554         0.00000000       0.00000000       0.00000000          1
6
pbc=[F, F, F] list_num_par=6 frozen=false iter=159 energy=-0.05862113 Lattice="15.00000000 0.00000000 0.00000000 0.00000000 15.00000000 0.00000000 0.00000000 0.00000000 15.00000000" energy_frozen_part=0.00000000 Properties=species:S:1:pos:R:3:velocities:R:3:Z:I:1
H         2.48486049       6.74478823      13.88031181         0.00000000       0.00000000       0.00000000          1
H         4.58287098       9.40660110      14.15944940         0.00000000       0.00000000       0.00000000          1
H        10.97390807      11.91369920       4.64617187         0.00000000       0.00000000       0.00000000          1
H         9.12536160       3.34517666      12.10588622         0.00000000       0.00000000       0.00000000          1
H         6.68871433       5.83930155       1.92707678         0.00000000       0.00000000       0.00000000          1
H        10.17717012      13.75327666       9.52646013         0.00000000       0.00000000       0.00000000          1
6
pbc=[F, F, F] list_num_par=6 frozen=false iter=169 energy=-0.06539993 Lattice="15.00000000 0.00000000 0.00000000 0.00000000 15.00000000 0.00000000 0.00000000 0.00000000 15.00000000" energy_frozen_part=0.00000000 Properties=species:S:1:pos:R:3:velocities:R:3:Z:I:1
H         1.38952789       3.00666884       2.43913246         0.00000000       0.00000000       0.00000000          1
H         5.04505170      14.40388518       5.33201290         0.00000000       0.00000000       0.00000000          1
H         4.78059794       4.22180872       1.24582687         0.00000000       0.00000000       0.00000000          1
H        11.82293153      10.59752412       7.72381762         0.00000000       0.00000000       0.00000000          1
H         6.43629461       1.73385677      13.76863237         0.00000000       0.00000000       0.00000000          1
H        10.72803540      13.81395402       6.17632804         0.00000000       0.00000000       0.00000000          1
6
pbc=[F, F, F] list_num_par=6 frozen=false iter=179 energy=-0.06955663 Lattice="15.00000000 0.00000000 0.00000000 0.00000000 15.00000000 0.00000000 0.00000000 0.00000000 15.00000000" energy_frozen_part=0.00000000 Properties=species:S:1:pos:R:3:velocities:R:3:Z:I:1
H         7.68264560      14.98599041       2.47418081         0.00000000       0.00000000       0.00000000          1
H         7.80735641       5.63069184       1.79918452         0.00000000       0.00000000       0.00000000          1
H         5.89436489      13.72812482       8.72942860         0.00000000       0.00000000       0.00000000          1
H         3.18797833      12.75753318       2.48194231         0.00000000       0.00000000       0.00000000          1
H        11.40817109       7.16513621      10.18814600         0.00000000       0.00000000       0.00000000          1
H        13.35938522       6.31543884       7.66435897         0.00000000       0.00000000       0.00000000          1
6
pbc=[F, F, F] list_num_par=6 frozen=false iter=189 energy=-0.07317670 Lattice="15.00000000 0.00000000 0.00000000 0.00000000 15.00000000 0.00000000 0.00000000 0.00000000 15.00000000" energy_frozen_part=0.00000000 Properties=species:S:1:pos:R:3:velocities:R:3:Z:I:1
H        11.07437079       6.70358974       4.49681039         0.00000000       0.00000000       0.00000000          1
H        12.41316968       3.13123538       9.61585969         0.00000000       0.00000000       0.00000000          1
H         0.94992070      12.18575079       6.91438965         0.00000000       0.00000000       0.00000000          1
H         4.34346155       0.56422187       6.51755899         0.00000000       0.00000000       0.00000000          1
H         4.36786270      11.36827637       8.59901560         0.00000000       0.00000000       0.00000000          1
H        10.47571964       3.12849950       6.05322234         0.00000000       0.00000000       0.00000000          1
6
pbc=[F, F, F] list_num_par=6 frozen=false iter=199 energy=-0.08076492 Lattice="15.00000000 0.00000000 0.00000000 0.00000000 15.00000000 0.00000000 0.00000000 0.00000000 15.00000000" energy_frozen_part=0.00000000 Properties=species:S:1:pos:R:3:velocities:R:3:Z:I:1
H         1.68476843       2.35418306       5.49604203         0.00000000       0.00000000       0.00000000          1
H         5.17952848      14.74083601       3.61541255         0.00000000       0.00000000       0.00000000          1
H         3.09586723       3.74694149       3.09244575         0.00000000       0.00000000       0.00000000          1
H        14.26787622      14.24228783       1.06214082         0.00000000       0.00000000       0.00000000          1
H         6.90801636       3.90670899      13.10563188         0.00000000       0.00000000       0.00000000          1
H         3.95664390       9.50140842       0.13049696         0.00000000       0.00000000       0.00000000          1
6
pbc=[F, F, F] list_num_par=6 frozen=false iter=209 energy=-0.08635788 Lattice="15.00000000 0.00000000 0.00000000 0.00000000 15.00000000 0.00000000 0.00000000 0.00000000 15.00000000" energy_frozen_part=0.00000000 Properties=species:S:1:pos:R:3:velocities:R:3:Z:I:1
H         5.51733050      11.63186911       2.11617314         0.00000000       0.00000000       0.00000000          1
H        11.87229891      11.99539405      14.81046721         0.00000000       0.00000000       0.00000000          1
H        13.84309239       2.46872844      12.87193951         0.00000000       0.00000000       0.00000000          1
H         1.70359663      10.11241883      13.64524319         0.00000000       0.00000000       0.00000000          1
H         4.79255901      10.20876332       7.52032219         0.00000000       0.00000000       0.00000000          1
H         9.78555001      14.03362214      13.84904518         0.00000000       0.00000000       0.00000000          1
6
pbc=[F, F, F] list_num_par=6 frozen=false iter=219 energy=-0.09194067 Lattice="15.00000000 0.00000000 0.00000000 0.00000000 15.00000000 0.00000000 0.00000000 0.00000000 15.00000000" energy_frozen_part=0.00000000 Properties=species:S:1:pos:R:3:velocities:R:3:Z:I:1
H         3.45250016      12.73102522      13.64050543         0.00000000       0.00000000       0.00000000          1
H         5.36434330      11.15886229      11.84020867         0.00000000       0.00000000       0.00000000          1
H         7.46418724       0.66778306       8.75335253         0.00000000       0.00000000       0.00000000          1
H        12.64537689      13.42536536       9.96332388         0.00000000       0.00000000       0.00000000          1
H        10.40615650      10.41465218       6.45096318         0.00000000       0.00000000       0.00000000          1
H         1.50138337      12.51535482       7.17083554         0.00000000       0.00000000       0.00000000          1
6
pbc=[F, F, F] list_num_par=6 frozen=false iter=229 energy=-0.09619098 Lattice="15.00000000 0.00000000 0.00000000 0.00000000 15.00000000 0.00000000 0.00000000 0.00000000 15.00000000" energy_frozen_part=0.00000000 Properties=species:S:1:pos:R:3:velocities:R:3:Z:I:1
H         3.73984315       3.64673902       2.68600484         0.00000000       0.00000000       0.00000000          1
H         5.51366763       6.57206204      10.01613121         0.00000000       0.00000000       0.00000000          1
H         5.42714237       1.95365802       4.70935655         0.00000000       0.00000000       0.00000000          1
H        13.93329681      13.50778075      10.46990479         0.00000000       0.00000000       0.00000000          1
H         9.61439868      14.01068741      12.30964376         0.00000000       0.00000000       0.00000000          1
H        11.78661069      14.79747124       6.46314170         0.00000000       0.00000000       0.00000000          1
6
pbc=[F, F, F] list_num_par=6 frozen=false iter=239 energy=-0.09848803 Lattice="15.00000000 0.00000000 0.00000000 0.00000000 15.00000000 0.00000000 0.00000000 0.00000000 15.00000000" energy_frozen_part=0.00000000 Properties=species:S:1:pos:R:3:velocities:R:3:Z:I:1
H         7.70671289       7.47201976      12.82359635         0.00000000       0.00000000       0.00000000          1
H        14.81957868       4.38324293       6.61366484         0.00000000       0.00000000       0.00000000          1
H         3.28352697       0.26922887       1.22710867         0.00000000       0.00000000       0.00000000          1
H         6.06628013       8.30300585       8.51562614         0.00000000       0.00000000       0.00000000          1
H         0.62602503       6.51919058       1.95152552         0.00000000       0.00000000       0.00000000          1
H         7.47723501       8.67115759       5.87439420         0.00000000       0.00000000       0.00000000          1
6
pbc=[F, F, F] list_num_par=6 frozen=false iter=249 energy=-0.10021120 Lattice="15.00000000 0.00000000 0.00000000 0.00000000 15.00000000 0.00000000 0.00000000 0.00000000 15.00000000" energy_frozen_part=0.00000000 Properties=species:S:1:pos:R:3:velocities:R:3:Z:I:1
H        13.29127452       7.99086696      11.34490946         0.00000000       0.00000000       0.00000000          1
H         0.67307085      13.81153945       5.15899569         0.00000000       0.00000000       0.00000000          1
H         2.42565900       6.75736926      10.50052480         0.00000000       0.00000000       0.00000000          1
H        11.63632639       6.61177839       0.42196272         0.00000000       0.00000000       0.00000000          1
H         0.19184834      11.07744014       5.20989997         0.00000000       0.00000000       0.00000000          1
H        14.69426343      14.85707431       5.04227076         0.00000000       0.00000000       0.00000000          1
6
pbc=[F, F, F] list_num_par=6 frozen=false iter=259 energy=-0.10141538 Lattice="15.00000000 0.00000000 0.00000000 0.00000000 15.00000000 0.00000000 0.00000000 0.00000000 15.00000000" energy_frozen_part=0.00000000 Properties=species:S:1:pos:R:3:velocities:R:3:Z:I:1
H        10.51099026       8.78262927       2.84508586         0.00000000       0.00000000       0.00000000          1
H         1.36565091      10.01572048       6.72667921         0.00000000       0.00000000       0.00000000          1
H        12.86261900       3.60639901       7.68960102         0.00000000       0.00000000       0.00000000          1
H         2.78693638       7.74364418       5.57389414         0.00000000       0.00000000       0.00000000          1
H         0.73485885       4.09910195       9.80159223         0.00000000       0.00000000       0.00000000          1
H        11.53059939       0.65571079       2.56731026         0.00000000       0.00000000       0.00000000          1
6
pbc=[F, F, F] list_num_par=6 frozen=false iter=269 energy=-0.10345036 Lattice="15.00000000 0.00000000 0.00000000 0.00000000 15.00000000 0.00000000 0.00000000 0.00000000 15.00000000" energy_frozen_part=0.00000000 Properties=species:S:1:pos:R:3:velocities:R:3:Z:I:1
H         7.76708491       4.65749169      12.11409447         0.00000000       0.00000000       0.00000000          1
H         6.26887291       2.17777610       5.26857807         0.00000000       0.00000000       0.00000000          1
H        14.76776956      10.46483648       0.94415593         0.00000000       0.00000000       0.00000000          1
H        10.54452800       5.34041210      11.76507366         0.00000000       0.00000000       0.00000000          1
H         1.00111594      11.16368475       8.44863237         0.00000000       0.00000000       0.00000000          1
H         9.45367628       6.71419577       5.26181857         0.00000000       0.00000000       0.00000000          1
6
pbc=[F, F, F] list_num_par=6 frozen=false iter=279 energy=-0.10652805 Lattice="15.00000000 0.00000000 0.00000000 0.00000000 15.00000000 0.00000000 0.00000000 0.00000000 15.00000000" energy_frozen_part=0.00000000 Properties=species:S:1:pos:R:3:velocities:R:3:Z:I:1
H         6.89116411       1.12443079       9.75502525         0.00000000       0.00000000       0.00000000          1
H         6.79557501       0.99352901       3.67459439         0.00000000       0.00000000       0.00000000          1
H         4.80166603      14.15119367      11.86937831         0.00000000       0.00000000       0.00000000          1
H         2.17637814       7.05535468      12.06167336         0.00000000       0.00000000       0.00000000          1
H         1.33397061       9.77337298      12.11416750         0.00000000       0.00000000       0.00000000          1
H        10.43429184      14.90112191       9.47083079         0.00000000       0.00000000       0.00000000          1
6
pbc=[F, F, F] list_num_par=6 frozen=false iter=289 energy=-0.11027975 Lattice="15.00000000 0.00000000 0.00000000 0.00000000 15.00000000 0.00000000 0.00000000 0.00000000 15.00000000" energy_frozen_part=0.00000000 Properties=species:S:1:pos:R:3:velocities:R:3:Z:I:1
H         2.53522066       9.04545438       9.28373495         0.00000000       0.00000000       0.00000000          1
H        12.27976680       7.84969206       5.37750716         0.00000000       0.00000000       0.00000000          1
H         1.76453619       8.68776458      12.28869473         0.00000000       0.00000000       0.00000000          1
H         0.43188194      10.21542814       1.53938688         0.00000000       0.00000000       0.00000000          1
H         9.68236084       4.24082477       5.34640723         0.00000000       0.00000000       0.00000000          1
H         9.52621668       0.75748191       7.45726512         0.00000000       0.00000000       0.00000000          1
6
pbc=[F, F, F] list_num_par=6 frozen=false iter=299 energy=-0.11340983 Lattice="15.00000000 0.00000000 0.00000000 0.00000000 15.00000000 0.00000000 0.00000000 0.00000000 15.00000000" energy_frozen_part=0.00000000 Properties=species:S:1:pos:R:3:velocities:R:3:Z:I:1
H        14.53064959       8.51560955       9.62214606         0.00000000       0.00000000       0.00000000          1
H         5.10089628       4.49835804       0.56321333         0.00000000       0.00000000       0.00000000          1
H         1.08850488       6.67653759       5.24498086         0.00000000       0.00000000       0.00000000          1
H        13.24916576       2.07455981       1.98512118         0.00000000       0.00000000       0.00000000          1
H         9.69137885       5.22958745       2.49162341         0.00000000       0.00000000       0.00000000          1
H        14.84089856      11.36966229       9.61365450         0.00000000       0.00000000       0.00000000          1
6
pbc=[F, F, F] list_num_par=6 frozen=false iter=309 energy=-0.11692330 Lattice="15.00000000 0.00000000 0.00000000 0.00000000 15.00000000 0.00000000 0.00000000 0.00000000 15.00000000" energy_frozen_part=0.00000000 Properties=species:S:1:pos:R:3:velocities:R:3:Z:I:1
H        12.62038361       6.58813215       6.55750823         0.00000000       0.00000000       0.00000000          1
H        13.52296875       8.31232934       4.74057091         0.00000000       0.00000000       0.00000000          1