6
pbc=[F, F, F] list_num_par=6 frozen=false iter=20000 energy=-1.26974174 Lattice="15.00000000 0.00000000 0.00000000 0.00000000 15.00000000 0.00000000 0.00000000 0.00000000 15.00000000" energy_frozen_part=0.00000000 Properties=species:S:1:pos:R:3:velocities:R:3:Z:I:1
H         2.92767444       6.59674807       8.10314232         0.00000000       0.00000000       0.00000000          1
H         2.13797567       8.82841875       9.58648268         0.00000000       0.00000000       0.00000000          1
H         4.04448483       7.06744911      10.62017327         0.00000000       0.00000000       0.00000000          1
H         3.68902347       9.15753000       7.28643449         0.00000000       0.00000000       0.00000000          1
H         5.59553526       7.39656828       8.32012230         0.00000000       0.00000000       0.00000000          1
H         4.80583549       9.62823229       9.80346363         0.00000000       0.00000000       0.00000000          1
6
pbc=[F, F, F] list_num_par=6 frozen=false iter=20000 energy=-1.26974174 Lattice="15.00000000 0.00000000 0.00000000 0.00000000 15.00000000 0.00000000 0.00000000 0.00000000 15.00000000" energy_frozen_part=0.00000000 Properties=species:S:1:pos:R:3:velocities:R:3:Z:I:1
H         2.82660989       7.61252852       6.44104616         0.00000000       0.00000000       0.00000000          1
H         3.06912227       8.72481379       8.99218009         0.00000000       0.00000000       0.00000000          1
H         3.98263171       6.12969292       8.50722352         0.00000000       0.00000000       0.00000000          1
H         4.65523723       9.67452271       6.89775959         0.00000000       0.00000000       0.00000000          1
H         5.56874085       7.07940815       6.41281133         0.00000000       0.00000000       0.00000000          1
H         5.81125199       8.19169301       8.96394716         0.00000000       0.00000000       0.00000000          1
6
pbc=[F, F, F] list_num_par=6 frozen=false iter=20000 energy=-1.26974174 Lattice="15.00000000 0.00000000 0.00000000 0.00000000 15.00000000 0.00000000 0.00000000 0.00000000 15.00000000" energy_frozen_part=0.00000000 Properties=species:S:1:pos:R:3:velocities:R:3:Z:I:1
H         2.82447876       7.61429530       6.44161268         0.00000000       0.00000000       0.00000000          1
H         3.07012274       8.72414813       8.99350251         0.00000000       0.00000000       0.00000000          1
H         3.98163788       6.12893346       8.50533745         0.00000000       0.00000000       0.00000000          1
H         4.65475405       9.67481195       6.89839533         0.00000000       0.00000000       0.00000000          1
H         5.56626728       7.07959686       6.41022915         0.00000000       0.00000000       0.00000000          1
H         5.81190728       8.18945710       8.96212089         0.00000000       0.00000000       0.00000000          1
6
pbc=[F, F, F] list_num_par=6 frozen=false iter=20000 energy=-1.26974174 Lattice="15.00000000 0.00000000 0.00000000 0.00000000 15.00000000 0.00000000 0.00000000 0.00000000 15.00000000" energy_frozen_part=0.00000000 Properties=species:S:1:pos:R:3:velocities:R:3:Z:I:1
H         2.82663246       7.61239817       6.44117779         0.00000000       0.00000000       0.00000000          1
H         3.06922663       8.72487857       8.99222051         0.00000000       0.00000000       0.00000000          1
H         3.98286036       6.12978006       8.50739700         0.00000000       0.00000000       0.00000000          1
H         4.65516005       9.67453803       6.89764232         0.00000000       0.00000000       0.00000000          1
H         5.56879424       7.07945182       6.41282620         0.00000000       0.00000000       0.00000000          1
H         5.81138135       8.19192399       8.96387121         0.00000000       0.00000000       0.00000000          1
6
pbc=[F, F, F] list_num_par=6 frozen=false iter=20000 energy=-1.26974174 Lattice="15.00000000 0.00000000 0.00000000 0.00000000 15.00000000 0.00000000 0.00000000 0.00000000 15.00000000" energy_frozen_part=0.00000000 Properties=species:S:1:pos:R:3:velocities:R:3:Z:I:1
H         2.82662504       7.61252646       6.44102844         0.00000000       0.00000000       0.00000000          1
H         3.06916037       8.72485082       8.99214240         0.00000000       0.00000000       0.00000000          1
H         3.98264147       6.12971741       8.50722533         0.00000000       0.00000000       0.00000000          1
H         4.65527125       9.67451839       6.89769903         0.00000000       0.00000000       0.00000000          1
H         5.56874869       7.07939265       6.41278289         0.00000000       0.00000000       0.00000000          1
H         5.81128590       8.19170685       8.96390075         0.00000000       0.00000000       0.00000000          1
6
pbc=[F, F, F] list_num_par=6 frozen=false iter=20000 energy=-1.26974174 Lattice="15.00000000 0.00000000 0.00000000 0.00000000 15.00000000 0.00000000 0.00000000 0.00000000 15.00000000" energy_frozen_part=0.00000000 Properties=species:S:1:pos:R:3:velocities:R:3:Z:I:1
H         2.82661061       7.61250831       6.44105603         0.00000000       0.00000000       0.00000000          1
H         3.06912259       8.72477998       8.99219149         0.00000000       0.00000000       0.00000000          1
H         3.98262186       6.12966440       8.50723722         0.00000000       0.00000000       0.00000000          1
H         4.65524784       9.67448931       6.89778465         0.00000000       0.00000000       0.00000000          1
H         5.56874157       7.07938075       6.41283129         0.00000000       0.00000000       0.00000000          1
H         5.81125133       8.19165275       8.96397444         0.00000000       0.00000000       0.00000000          1
6
pbc=[F, F, F] list_num_par=6 frozen=false iter=20000 energy=-1.26974174 Lattice="15.00000000 0.00000000 0.00000000 0.00000000 15.00000000 0.00000000 0.00000000 0.00000000 15.00000000" energy_frozen_part=0.00000000 Properties=species:S:1:pos:R:3:velocities:R:3:Z:I:1
H         2.82448689       7.61427309       6.44161519         0.00000000       0.00000000       0.00000000          1
H         3.07013467       8.72414832       8.99349930         0.00000000       0.00000000       0.00000000          1
H         3.98165194       6.12893328       8.50535491         0.00000000       0.00000000       0.00000000          1
H         4.65476333       9.67479319       6.89838999         0.00000000       0.00000000       0.00000000          1
H         5.56627273       7.07958278       6.41023627         0.00000000       0.00000000       0.00000000          1
H         5.81192730       8.18944544       8.96212657         0.00000000       0.00000000       0.00000000          1
6
pbc=[F, F, F] list_num_par=6 frozen=false iter=20000 energy=-1.26974174 Lattice="15.00000000 0.00000000 0.00000000 0.00000000 15.00000000 0.00000000 0.00000000 0.00000000 15.00000000" energy_frozen_part=0.00000000 Properties=species:S:1:pos:R:3:velocities:R:3:Z:I:1
H         2.82656804       7.61239538       6.44120997         0.00000000       0.00000000       0.00000000          1
H         3.06922551       8.72483162       8.99227063         0.00000000       0.00000000       0.00000000          1
H         3.98285665       6.12975525       8.50737305         0.00000000       0.00000000       0.00000000          1
H         4.65508865       9.67453889       6.89766056         0.00000000       0.00000000       0.00000000          1
H         5.56873052       7.07946138       6.41276852         0.00000000       0.00000000       0.00000000          1
H         5.81138571       8.19190024       8.96382697         0.00000000       0.00000000       0.00000000          1
6
pbc=[F, F, F] list_num_par=6 frozen=false iter=20000 energy=-1.26974174 Lattice="15.00000000 0.00000000 0.00000000 0.00000000 15.00000000 0.00000000 0.00000000 0.00000000 15.00000000" energy_frozen_part=0.00000000 Properties=species:S:1:pos:R:3:velocities:R:3:Z:I:1
H         2.82662370       7.61252550       6.44101739         0.00000000       0.00000000       0.00000000          1
H         3.06914772       8.72484227       8.99214238         0.00000000       0.00000000       0.00000000          1
H         3.98264385       6.12972239       8.50721616         0.00000000       0.00000000       0.00000000          1
H         4.65526228       9.67451795       6.89770920         0.00000000       0.00000000       0.00000000          1
H         5.56875644       7.07939714       6.41278212         0.00000000       0.00000000       0.00000000          1
H         5.81127998       8.19171168       8.96390556         0.00000000       0.00000000       0.00000000          1
6
pbc=[F, F, F] list_num_par=6 frozen=false iter=20000 energy=-1.26974174 Lattice="15.00000000 0.00000000 0.00000000 0.00000000 15.00000000 0.00000000 0.00000000 0.00000000 15.00000000" energy_frozen_part=0.00000000 Properties=species:S:1:pos:R:3:velocities:R:3:Z:I:1
H         2.82448830       7.61429476       6.44161377         0.00000000       0.00000000       0.00000000          1
H         3.07012631       8.72415272       8.99350539         0.00000000       0.00000000       0.00000000          1
H         3.98164013       6.12893681       8.50534845         0.00000000       0.00000000       0.00000000          1
H         4.65476192       9.67481174       6.89839579         0.00000000       0.00000000       0.00000000          1
H         5.56627026       7.07959814       6.41023410         0.00000000       0.00000000       0.00000000          1
H         5.81190881       8.18945478       8.96213045         0.00000000       0.00000000       0.00000000          1
6
pbc=[F, F, F] list_num_par=6 frozen=false iter=20000 energy=-1.26974174 Lattice="15.00000000 0.00000000 0.00000000 0.00000000 15.00000000 0.00000000 0.00000000 0.00000000 15.00000000" energy_frozen_part=0.00000000 Properties=species:S:1:pos:R:3:velocities:R:3:Z:I:1
H         2.82565404       7.61373813       6.44094169         0.00000000       0.00000000       0.00000000          1
H         3.07074812       8.72494666       8.99230620         0.00000000       0.00000000       0.00000000          1
H         3.98312369       6.12978264       8.50550442         0.00000000       0.00000000       0.00000000          1
H         4.65523980       9.67506176       6.89684891         0.00000000       0.00000000       0.00000000          1
H         5.56762228       7.07989848       6.41005397         0.00000000       0.00000000       0.00000000          1
H         5.81270854       8.19110221       8.96141438         0.00000000       0.00000000       0.00000000          1
6
pbc=[F, F, F] list_num_par=6 frozen=false iter=20000 energy=-1.26974174 Lattice="15.00000000 0.00000000 0.00000000 0.00000000 15.00000000 0.00000000 0.00000000 0.00000000 15.00000000" energy_frozen_part=0.00000000 Properties=species:S:1:pos:R:3:velocities:R:3:Z:I:1
H         2.82656981       7.61239976       6.44119993         0.00000000       0.00000000       0.00000000          1
H         3.06923285       8.72483350       8.99225794         0.00000000       0.00000000       0.00000000          1
H         3.98286309       6.12975348       8.50736768         0.00000000       0.00000000       0.00000000          1
H         4.65509583       9.67453664       6.89765108         0.00000000       0.00000000       0.00000000          1
H         5.56873402       7.07946344       6.41276527         0.00000000       0.00000000       0.00000000          1
H         5.81138884       8.19189890       8.96382026         0.00000000       0.00000000       0.00000000          1
6
pbc=[F, F, F] list_num_par=6 frozen=false iter=20000 energy=-1.26974174 Lattice="15.00000000 0.00000000 0.00000000 0.00000000 15.00000000 0.00000000 0.00000000 0.00000000 15.00000000" energy_frozen_part=0.00000000 Properties=species:S:1:pos:R:3:velocities:R:3:Z:I:1
H         2.82654608       7.61242174       6.44121008         0.00000000       0.00000000       0.00000000          1
H         3.06921360       8.72485743       8.99226082         0.00000000       0.00000000       0.00000000          1
H         3.98283522       6.12977505       8.50738105         0.00000000       0.00000000       0.00000000          1
H         4.65508480       9.67456024       6.89765898         0.00000000       0.00000000       0.00000000          1
H         5.56870638       7.07947325       6.41277200         0.00000000       0.00000000       0.00000000          1
H         5.81137185       8.19190753       8.96382834         0.00000000       0.00000000       0.00000000          1
6
pbc=[F, F, F] list_num_par=6 frozen=false iter=20000 energy=-1.26974174 Lattice="15.00000000 0.00000000 0.00000000 0.00000000 15.00000000 0.00000000 0.00000000 0.00000000 15.00000000" energy_frozen_part=0.00000000 Properties=species:S:1:pos:R:3:velocities:R:3:Z:I:1
H         2.82662647       7.61253720       6.44101790         0.00000000       0.00000000       0.00000000          1
H         3.06916858       8.72483656       8.99214327         0.00000000       0.00000000       0.00000000          1
H         3.98262966       6.12971025       8.50721497         0.00000000       0.00000000       0.00000000          1
H         4.65528007       9.67451102       6.89770822         0.00000000       0.00000000       0.00000000          1
H         5.56874328       7.07938032       6.41278425         0.00000000       0.00000000       0.00000000          1
H         5.81129103       8.19168527       8.96390470         0.00000000       0.00000000       0.00000000          1
6
pbc=[F, F, F] list_num_par=6 frozen=false iter=20000 energy=-1.26974174 Lattice="15.00000000 0.00000000 0.00000000 0.00000000 15.00000000 0.00000000 0.00000000 0.00000000 15.00000000" energy_frozen_part=0.00000000 Properties=species:S:1:pos:R:3:velocities:R:3:Z:I:1
H         2.92783492       6.59667800       8.10319698         0.00000000       0.00000000       0.00000000          1
H         2.13789997       8.82847167       9.58621781         0.00000000       0.00000000       0.00000000          1
H         4.04425289       7.06760899      10.62036552         0.00000000       0.00000000       0.00000000          1
H         3.68929994       9.15739238       7.28638375         0.00000000       0.00000000       0.00000000          1
H         5.59565908       7.39652886       8.32053008         0.00000000       0.00000000       0.00000000          1
H         4.80572405       9.62832376       9.80355082         0.00000000       0.00000000       0.00000000          1
6
pbc=[F, F, F] list_num_par=6 frozen=false iter=20000 energy=-1.26974174 Lattice="15.00000000 0.00000000 0.00000000 0.00000000 15.00000000 0.00000000 0.00000000 0.00000000 15.00000000" energy_frozen_part=0.00000000 Properties=species:S:1:pos:R:3:velocities:R:3:Z:I:1
H         2.92767808       6.59674950       8.10314253         0.00000000       0.00000000       0.00000000          1
H         2.13797357       8.82841602       9.58648571         0.00000000       0.00000000       0.00000000          1
H         4.04448935       7.06745611      10.62017436         0.00000000       0.00000000       0.00000000          1
H         3.68903002       9.15753630       7.28643945         0.00000000       0.00000000       0.00000000          1
H         5.59553931       7.39657482       8.32012540         0.00000000       0.00000000       0.00000000          1
H         4.80582898       9.62824218       9.80347804         0.00000000       0.00000000       0.00000000          1
6
pbc=[F, F, F] list_num_par=6 frozen=false iter=20000 energy=-1.26974174 Lattice="15.00000000 0.00000000 0.00000000 0.00000000 15.00000000 0.00000000 0.00000000 0.00000000 15.00000000" energy_frozen_part=0.00000000 Properties=species:S:1:pos:R:3:velocities:R:3:Z:I:1
H         2.82447765       7.61438314       6.44163966         0.00000000       0.00000000       0.00000000          1
H         3.07021753       8.72412609       8.99357424         0.00000000       0.00000000       0.00000000          1
H         3.98170816       6.12893744       8.50526901         0.00000000       0.00000000       0.00000000          1
H         4.65476382       9.67487590       6.89844338         0.00000000       0.00000000       0.00000000          1
H         5.56626197       7.07968903       6.41014025         0.00000000       0.00000000       0.00000000          1
H         5.81200388       8.18943339       8.96207126         0.00000000       0.00000000       0.00000000          1
6
pbc=[F, F, F] list_num_par=6 frozen=false iter=20000 energy=-1.26974174 Lattice="15.00000000 0.00000000 0.00000000 0.00000000 15.00000000 0.00000000 0.00000000 0.00000000 15.00000000" energy_frozen_part=0.00000000 Properties=species:S:1:pos:R:3:velocities:R:3:Z:I:1
H         2.92801762       6.59575026       8.10151642         0.00000000       0.00000000       0.00000000          1
H         2.13829964       8.82698235       9.58551011         0.00000000       0.00000000       0.00000000          1
H         4.04452056       7.06551125      10.61886401         0.00000000       0.00000000       0.00000000          1
H         3.68970383       9.15675274       7.28579554         0.00000000       0.00000000       0.00000000          1
H         5.59591666       7.39527512       8.31915162         0.00000000       0.00000000       0.00000000          1
H         4.80620509       9.62650777       9.80314114         0.00000000       0.00000000       0.00000000          1
6
pbc=[F, F, F] list_num_par=6 frozen=false iter=20000 energy=-1.26974174 Lattice="15.00000000 0.00000000 0.00000000 0.00000000 15.00000000 0.00000000 0.00000000 0.00000000 15.00000000" energy_frozen_part=0.00000000 Properties=species:S:1:pos:R:3:velocities:R:3:Z:I:1
H         2.82655865       7.61249535       6.44121513         0.00000000       0.00000000       0.00000000          1
H         3.06926806       8.72478241       8.99233858         0.00000000       0.00000000       0.00000000          1
H         3.98274751       6.12967546       8.50731856         0.00000000       0.00000000       0.00000000          1
H         4.65520616       9.67450440       6.89779562         0.00000000       0.00000000       0.00000000          1
H         5.56868760       7.07939388       6.41276960         0.00000000       0.00000000       0.00000000          1
H         5.81139934       8.19168205       8.96388878         0.00000000       0.00000000       0.00000000          1
6
pbc=[F, F, F] list_num_par=6 frozen=false iter=20000 energy=-1.26974174 Lattice="15.00000000 0.00000000 0.00000000 0.00000000 15.00000000 0.00000000 0.00000000 0.00000000 15.00000000" energy_frozen_part=0.00000000 Properties=species:S:1:pos:R:3:velocities:R:3:Z:I:1
H         2.82447467       7.61436739       6.44164819         0.00000000       0.00000000       0.00000000          1
H         3.07020999       8.72412053       8.99357595         0.00000000       0.00000000       0.00000000          1
H         3.98171654       6.12893681       8.50527876         0.00000000       0.00000000       0.00000000          1
H         4.65475565       9.67487987       6.89844667         0.00000000       0.00000000       0.00000000          1
H         5.56626112       7.07968390       6.41015094         0.00000000       0.00000000       0.00000000          1
H         5.81199853       8.18944256       8.96207724         0.00000000       0.00000000       0.00000000          1
6
pbc=[F, F, F] list_num_par=6 frozen=false iter=20000 energy=-1.26974174 Lattice="15.00000000 0.00000000 0.00000000 0.00000000 15.00000000 0.00000000 0.00000000 0.00000000 15.00000000" energy_frozen_part=0.00000000 Properties=species:S:1:pos:R:3:velocities:R:3:Z:I:1
H         2.82454510       7.61432776       6.44157896         0.00000000       0.00000000       0.00000000          1
H         3.07014206       8.72418898       8.99347642         0.00000000       0.00000000       0.00000000          1
H         3.98163087       6.12896198       8.50533966         0.00000000       0.00000000       0.00000000          1
H         4.65483498       9.67481993       6.89839568         0.00000000       0.00000000       0.00000000          1
H         5.56632277       7.07959385       6.41026978         0.00000000       0.00000000       0.00000000          1
H         5.81192397       8.18945320       8.96215910         0.00000000       0.00000000       0.00000000          1
6
pbc=[F, F, F] list_num_par=6 frozen=false iter=20000 energy=-1.26974174 Lattice="15.00000000 0.00000000 0.00000000 0.00000000 15.00000000 0.00000000 0.00000000 0.00000000 15.00000000" energy_frozen_part=0.00000000 Properties=species:S:1:pos:R:3:velocities:R:3:Z:I:1
H         2.82448017       7.61438756       6.44164698         0.00000000       0.00000000       0.00000000          1
H         3.07021072       8.72411916       8.99358798         0.00000000       0.00000000       0.00000000          1
H         3.98170094       6.12893172       8.50527357         0.00000000       0.00000000       0.00000000          1
H         4.65476886       9.67487733       6.89847159         0.00000000       0.00000000       0.00000000          1
H         5.56626077       7.07968669       6.41015500         0.00000000       0.00000000       0.00000000          1
H         5.81200313       8.18942196       8.96208936         0.00000000       0.00000000       0.00000000          1
6
pbc=[F, F, F] list_num_par=6 frozen=false iter=20000 energy=-1.26974174 Lattice="15.00000000 0.00000000 0.00000000 0.00000000 15.00000000 0.00000000 0.00000000 0.00000000 15.00000000" energy_frozen_part=0.00000000 Properties=species:S:1:pos:R:3:velocities:R:3:Z:I:1
H         2.82448829       7.61427405       6.44160580         0.00000000       0.00000000       0.00000000          1
H         3.07013689       8.72414014       8.99350130         0.00000000       0.00000000       0.00000000          1
H         3.98163679       6.12892368       8.50534365         0.00000000       0.00000000       0.00000000          1
H         4.65477159       9.67477987       6.89839303         0.00000000       0.00000000       0.00000000          1
H         5.56627640       7.07956616       6.41023866         0.00000000       0.00000000       0.00000000          1
H         5.81192008       8.18943118       8.96213561         0.00000000       0.00000000       0.00000000          1
6
pbc=[F, F, F] list_num_par=6 frozen=false iter=20000 energy=-1.26974174 Lattice="15.00000000 0.00000000 0.00000000 0.00000000 15.00000000 0.00000000 0.00000000 0.00000000 15.00000000" energy_frozen_part=0.00000000 Properties=species:S:1:pos:R:3:velocities:R:3:Z:I:1
H         2.82655754       7.61250499       6.44121783         0.00000000       0.00000000       0.00000000          1
H         3.06927083       8.72478739       8.99234076         0.00000000       0.00000000       0.00000000          1
H         3.98275186       6.12967467       8.50730884         0.00000000       0.00000000       0.00000000          1
H         4.65520703       9.67450773       6.89779128         0.00000000       0.00000000       0.00000000          1
H         5.56868369       7.07939989       6.41276156         0.00000000       0.00000000       0.00000000          1
H         5.81139729       8.19168346       8.96388410         0.00000000       0.00000000       0.00000000          1
6
pbc=[F, F, F] list_num_par=6 frozen=false iter=20000 energy=-1.26974174 Lattice="15.00000000 0.00000000 0.00000000 0.00000000 15.00000000 0.00000000 0.00000000 0.00000000 15.00000000" energy_frozen_part=0.00000000 Properties=species:S:1:pos:R:3:velocities:R:3:Z:I:1
H         2.82448802       7.61435458       6.44164671         0.00000000       0.00000000       0.00000000          1
H         3.07019504       8.72413634       8.99356693         0.00000000       0.00000000       0.00000000          1
H         3.98170094       6.12894228       8.50529720         0.00000000       0.00000000       0.00000000          1
H         4.65475961       9.67486856       6.89844892         0.00000000       0.00000000       0.00000000          1
H         5.56627798       7.07968024       6.41018125         0.00000000       0.00000000       0.00000000          1
H         5.81198005       8.18944980       8.96210479         0.00000000       0.00000000       0.00000000          1
6
pbc=[F, F, F] list_num_par=6 frozen=false iter=20000 energy=-1.26974174 Lattice="15.00000000 0.00000000 0.00000000 0.00000000 15.00000000 0.00000000 0.00000000 0.00000000 15.00000000" energy_frozen_part=0.00000000 Properties=species:S:1:pos:R:3:velocities:R:3:Z:I:1
H         2.82655814       7.61241995       6.44120651         0.00000000       0.00000000       0.00000000          1
H         3.06921734       8.72485741       8.99226136         0.00000000       0.00000000       0.00000000          1
H         3.98283254       6.12977047       8.50737133         0.00000000       0.00000000       0.00000000          1
H         4.65509561       9.67454888       6.89766261         0.00000000       0.00000000       0.00000000          1
H         5.56871067       7.07946184       6.41276716         0.00000000       0.00000000       0.00000000          1
H         5.81137180       8.19189905       8.96382614         0.00000000       0.00000000       0.00000000          1
6
pbc=[F, F, F] list_num_par=6 frozen=false iter=20000 energy=-1.26974174 Lattice="15.00000000 0.00000000 0.00000000 0.00000000 15.00000000 0.00000000 0.00000000 0.00000000 15.00000000" energy_frozen_part=0.00000000 Properties=species:S:1:pos:R:3:velocities:R:3:Z:I:1
H         2.82662162       7.61252520       6.44102487         0.00000000       0.00000000       0.00000000          1
H         3.06915786       8.72483870       8.99214714         0.00000000       0.00000000       0.00000000          1
H         3.98263981       6.12971400       8.50722449         0.00000000       0.00000000       0.00000000          1
H         4.65526416       9.67451336       6.89770749         0.00000000       0.00000000       0.00000000          1
H         5.56874464       7.07938295       6.41277961         0.00000000       0.00000000       0.00000000          1
H         5.81127769       8.19169978       8.96389933         0.00000000       0.00000000       0.00000000          1
6
pbc=[F, F, F] list_num_par=6 frozen=false iter=20000 energy=-1.26974174 Lattice="15.00000000 0.00000000 0.00000000 0.00000000 15.00000000 0.00000000 0.00000000 0.00000000 15.00000000" energy_frozen_part=0.00000000 Properties=species:S:1:pos:R:3:velocities:R:3:Z:I:1
H         2.82662414       7.61253077       6.44101797         0.00000000       0.00000000       0.00000000          1
H         3.06916434       8.72483439       8.99214423         0.00000000       0.00000000       0.00000000          1
H         3.98263935       6.12970729       8.50721294         0.00000000       0.00000000       0.00000000          1
H         4.65527008       9.67450904       6.89770421         0.00000000       0.00000000       0.00000000          1
H         5.56874723       7.07937935       6.41278582         0.00000000       0.00000000       0.00000000          1
H         5.81128537       8.19169367       8.96390418         0.00000000       0.00000000       0.00000000          1
6
pbc=[F, F, F] list_num_par=6 frozen=false iter=20000 energy=-1.26974174 Lattice="15.00000000 0.00000000 0.00000000 0.00000000 15.00000000 0.00000000 0.00000000 0.00000000 15.00000000" energy_frozen_part=0.00000000 Properties=species:S:1:pos:R:3:velocities:R:3:Z:I:1
H         2.82662252       7.61252838       6.44101001         0.00000000       0.00000000       0.00000000          1
H         3.06914676       8.72483953       8.99213161         0.00000000       0.00000000       0.00000000          1
H         3.98263804       6.12971715       8.50720766         0.00000000       0.00000000       0.00000000          1
H         4.65525757       9.67452192       6.89770102         0.00000000       0.00000000       0.00000000          1
H         5.56875230       7.07939434       6.41278029         0.00000000       0.00000000       0.00000000          1
H         5.81127980       8.19171052       8.96389919         0.00000000       0.00000000       0.00000000          1
6
pbc=[F, F, F] list_num_par=6 frozen=false iter=20000 energy=-1.26974174 Lattice="15.00000000 0.00000000 0.00000000 0.00000000 15.00000000 0.00000000 0.00000000 0.00000000 15.00000000" energy_frozen_part=0.00000000 Properties=species:S:1:pos:R:3:velocities:R:3:Z:I:1
H         2.92780785       6.59660643       8.10327111         0.00000000       0.00000000       0.00000000          1
H         2.13784802       8.82845265       9.58621781         0.00000000       0.00000000       0.00000000          1
H         4.04422810       7.06764882      10.62041833         0.00000000       0.00000000       0.00000000          1
H         3.68923958       9.15730306       7.28636655         0.00000000       0.00000000       0.00000000          1
H         5.59562573       7.39651013       8.32056668         0.00000000       0.00000000       0.00000000          1
H         4.80565948       9.62834922       9.80351461         0.00000000       0.00000000       0.00000000          1
6
pbc=[F, F, F] list_num_par=6 frozen=false iter=20000 energy=-1.26974174 Lattice="15.00000000 0.00000000 0.00000000 0.00000000 15.00000000 0.00000000 0.00000000 0.00000000 15.00000000" energy_frozen_part=0.00000000 Properties=species:S:1:pos:R:3:velocities:R:3:Z:I:1
H         2.82448878       7.61436521       6.44163789         0.00000000       0.00000000       0.00000000          1
H         3.07018758       8.72412014       8.99357696         0.00000000       0.00000000       0.00000000          1