6
pbc=[F, F, F] list_num_par=6 frozen=false iter=20000 energy=-1.26974174 Lattice="15.00000000 0.00000000 0.00000000 0.00000000 15.00000000 0.00000000 0.00000000 0.00000000 15.00000000" energy_frozen_part=0.00000000 Properties=species:S:1:pos:R:3:velocities:R:3:Z:I:1
H        10.87299605       2.39227474       3.49433418         0.00000000       0.00000000       0.00000000          1
H         8.33050439       3.24449780       4.27774237         0.00000000       0.00000000       0.00000000          1
H        10.07887093       2.14989805       6.16171562         0.00000000       0.00000000       0.00000000          1
H        12.02234427       4.02541221       5.44781750         0.00000000       0.00000000       0.00000000          1
H        10.27397266       5.12002059       3.56386030         0.00000000       0.00000000       0.00000000          1
H         9.47985383       4.87764602       6.23123479         0.00000000       0.00000000       0.00000000          1
6
pbc=[F, F, F] list_num_par=6 frozen=false iter=20000 energy=-1.26974174 Lattice="15.00000000 0.00000000 0.00000000 0.00000000 15.00000000 0.00000000 0.00000000 0.00000000 15.00000000" energy_frozen_part=0.00000000 Properties=species:S:1:pos:R:3:velocities:R:3:Z:I:1
H        10.87166474       2.39161790       3.49501510         0.00000000       0.00000000       0.00000000          1
H         8.32999970       3.24534472       4.27947221         0.00000000       0.00000000       0.00000000          1
H        10.07851541       2.14973832       6.16273251         0.00000000       0.00000000       0.00000000          1
H        12.02278428       4.02411609       5.44800302         0.00000000       0.00000000       0.00000000          1
H        10.27426357       5.11972061       3.56475009         0.00000000       0.00000000       0.00000000          1
H         9.48111814       4.87783355       6.23246675         0.00000000       0.00000000       0.00000000          1
6
pbc=[F, F, F] list_num_par=6 frozen=false iter=20000 energy=-1.26974174 Lattice="15.00000000 0.00000000 0.00000000 0.00000000 15.00000000 0.00000000 0.00000000 0.00000000 15.00000000" energy_frozen_part=0.00000000 Properties=species:S:1:pos:R:3:velocities:R:3:Z:I:1
H        10.87299243       2.39243931       3.49430607         0.00000000       0.00000000       0.00000000          1
H         8.33047279       3.24458784       4.27771476         0.00000000       0.00000000       0.00000000          1
H        10.07882511       2.14994839       6.16166254         0.00000000       0.00000000       0.00000000          1
H        12.02226618       4.02554117       5.44787633         0.00000000       0.00000000       0.00000000          1
H        10.27390398       5.12017447       3.56392002         0.00000000       0.00000000       0.00000000          1
H         9.47975302       4.87768538       6.23128101         0.00000000       0.00000000       0.00000000          1
6
pbc=[F, F, F] list_num_par=6 frozen=false iter=20000 energy=-1.26974174 Lattice="15.00000000 0.00000000 0.00000000 0.00000000 15.00000000 0.00000000 0.00000000 0.00000000 15.00000000" energy_frozen_part=0.00000000 Properties=species:S:1:pos:R:3:velocities:R:3:Z:I:1
H        10.92641915       2.37939911       3.50851884         0.00000000       0.00000000       0.00000000          1
H         8.38915734       3.21523525       4.32582396         0.00000000       0.00000000       0.00000000          1
H        10.16223719       2.11358558       6.18240155         0.00000000       0.00000000       0.00000000          1
H        12.09028991       4.00241724       5.46185618         0.00000000       0.00000000       0.00000000          1
H        10.31721703       5.10406481       3.60528207         0.00000000       0.00000000       0.00000000          1
H         9.55303445       4.83825123       6.27916448         0.00000000       0.00000000       0.00000000          1
6
pbc=[F, F, F] list_num_par=6 frozen=false iter=20000 energy=-1.26974174 Lattice="15.00000000 0.00000000 0.00000000 0.00000000 15.00000000 0.00000000 0.00000000 0.00000000 15.00000000" energy_frozen_part=0.00000000 Properties=species:S:1:pos:R:3:velocities:R:3:Z:I:1
H        10.87299509       2.39245844       3.49427959         0.00000000       0.00000000       0.00000000          1
H         8.33046996       3.24455547       4.27770932         0.00000000       0.00000000       0.00000000          1
H        10.07884346       2.14988029       6.16163385         0.00000000       0.00000000       0.00000000          1
H        12.02225438       4.02551895       5.44789092         0.00000000       0.00000000       0.00000000          1
H        10.27388953       5.12018210       3.56396336         0.00000000       0.00000000       0.00000000          1
H         9.47972682       4.87761313       6.23131661         0.00000000       0.00000000       0.00000000          1
6
pbc=[F, F, F] list_num_par=6 frozen=false iter=20000 energy=-1.26974174 Lattice="15.00000000 0.00000000 0.00000000 0.00000000 15.00000000 0.00000000 0.00000000 0.00000000 15.00000000" energy_frozen_part=0.00000000 Properties=species:S:1:pos:R:3:velocities:R:3:Z:I:1
H        10.92557435       2.38013857       3.50791854         0.00000000       0.00000000       0.00000000          1
H         8.38856694       3.21581914       4.32614503         0.00000000       0.00000000       0.00000000          1
H        10.16191759       2.11312257       6.18183396         0.00000000       0.00000000       0.00000000          1
H        12.08999932       4.00211328       5.46179450         0.00000000       0.00000000       0.00000000          1
H        10.31666239       5.10481124       3.60609969         0.00000000       0.00000000       0.00000000          1
H         9.55298640       4.83780053       6.28000692         0.00000000       0.00000000       0.00000000          1
6
pbc=[F, F, F] list_num_par=6 frozen=false iter=20000 energy=-1.26974174 Lattice="15.00000000 0.00000000 0.00000000 0.00000000 15.00000000 0.00000000 0.00000000 0.00000000 15.00000000" energy_frozen_part=0.00000000 Properties=species:S:1:pos:R:3:velocities:R:3:Z:I:1
H        10.87295534       2.39246618       3.49425207         0.00000000       0.00000000       0.00000000          1
H         8.33045371       3.24461942       4.27771099         0.00000000       0.00000000       0.00000000          1
H        10.07883282       2.14994491       6.16162436         0.00000000       0.00000000       0.00000000          1
H        12.02227310       4.02552342       5.44783438         0.00000000       0.00000000       0.00000000          1
H        10.27388834       5.12021006       3.56392286         0.00000000       0.00000000       0.00000000          1
H         9.47977476       4.87767953       6.23129068         0.00000000       0.00000000       0.00000000          1
6
pbc=[F, F, F] list_num_par=6 frozen=false iter=20000 energy=-1.26974174 Lattice="15.00000000 0.00000000 0.00000000 0.00000000 15.00000000 0.00000000 0.00000000 0.00000000 15.00000000" energy_frozen_part=0.00000000 Properties=species:S:1:pos:R:3:velocities:R:3:Z:I:1
H        10.87299219       2.39244580       3.49429668         0.00000000       0.00000000       0.00000000          1
H         8.33046138       3.24456328       4.27769759         0.00000000       0.00000000       0.00000000          1
H        10.07881655       2.14989874       6.16164402         0.00000000       0.00000000       0.00000000          1
H        12.02223797       4.02552237       5.44791415         0.00000000       0.00000000       0.00000000          1
H        10.27388678       5.12018272       3.56396433         0.00000000       0.00000000       0.00000000          1
H         9.47970381       4.87763150       6.23130889         0.00000000       0.00000000       0.00000000          1
6
pbc=[F, F, F] list_num_par=6 frozen=false iter=20000 energy=-1.26974174 Lattice="15.00000000 0.00000000 0.00000000 0.00000000 15.00000000 0.00000000 0.00000000 0.00000000 15.00000000" energy_frozen_part=0.00000000 Properties=species:S:1:pos:R:3:velocities:R:3:Z:I:1
H        10.92638156       2.37935934       3.50851042         0.00000000       0.00000000       0.00000000          1
H         8.38914725       3.21523475       4.32584739         0.00000000       0.00000000       0.00000000          1
H        10.16221031       2.11354611       6.18239770         0.00000000       0.00000000       0.00000000          1
H        12.09030211       4.00235015       5.46184066         0.00000000       0.00000000       0.00000000          1
H        10.31723811       5.10403375       3.60528907         0.00000000       0.00000000       0.00000000          1
H         9.55306716       4.83821978       6.27917314         0.00000000       0.00000000       0.00000000          1
6
pbc=[F, F, F] list_num_par=6 frozen=false iter=20000 energy=-1.26974174 Lattice="15.00000000 0.00000000 0.00000000 0.00000000 15.00000000 0.00000000 0.00000000 0.00000000 15.00000000" energy_frozen_part=0.00000000 Properties=species:S:1:pos:R:3:velocities:R:3:Z:I:1
H        10.87163714       2.39161959       3.49503394         0.00000000       0.00000000       0.00000000          1
H         8.32997421       3.24535932       4.27951079         0.00000000       0.00000000       0.00000000          1
H        10.07849039       2.14975104       6.16275038         0.00000000       0.00000000       0.00000000          1
H        12.02276567       4.02411458       5.44801172         0.00000000       0.00000000       0.00000000          1
H        10.27424370       5.11972458       3.56477078         0.00000000       0.00000000       0.00000000          1
H         9.48111639       4.87785855       6.23248418         0.00000000       0.00000000       0.00000000          1
6
pbc=[F, F, F] list_num_par=6 frozen=false iter=20000 energy=-1.26974174 Lattice="15.00000000 0.00000000 0.00000000 0.00000000 15.00000000 0.00000000 0.00000000 0.00000000 15.00000000" energy_frozen_part=0.00000000 Properties=species:S:1:pos:R:3:velocities:R:3:Z:I:1
H        10.92555510       2.38010753       3.50794966         0.00000000       0.00000000       0.00000000          1
H         8.38853722       3.21576800       4.32618197         0.00000000       0.00000000       0.00000000          1
H        10.16189371       2.11305793       6.18185096         0.00000000       0.00000000       0.00000000          1
H        12.08996801       4.00207659       5.46183728         0.00000000       0.00000000       0.00000000          1
H        10.31661324       5.10478490       3.60615794         0.00000000       0.00000000       0.00000000          1
H         9.55294797       4.83772647       6.28006392         0.00000000       0.00000000       0.00000000          1
6
pbc=[F, F, F] list_num_par=6 frozen=false iter=20000 energy=-1.26974174 Lattice="15.00000000 0.00000000 0.00000000 0.00000000 15.00000000 0.00000000 0.00000000 0.00000000 15.00000000" energy_frozen_part=0.00000000 Properties=species:S:1:pos:R:3:velocities:R:3:Z:I:1
H        10.87166295       2.39163304       3.49501128         0.00000000       0.00000000       0.00000000          1
H         8.33002379       3.24540860       4.27948169         0.00000000       0.00000000       0.00000000          1
H        10.07850862       2.14973761       6.16271703         0.00000000       0.00000000       0.00000000          1
H        12.02281963       4.02406602       5.44802517         0.00000000       0.00000000       0.00000000          1
H        10.27433648       5.11974631       3.56478623         0.00000000       0.00000000       0.00000000          1
H         9.48118357       4.87785265       6.23249525         0.00000000       0.00000000       0.00000000          1
6
pbc=[F, F, F] list_num_par=6 frozen=false iter=20000 energy=-1.26974174 Lattice="15.00000000 0.00000000 0.00000000 0.00000000 15.00000000 0.00000000 0.00000000 0.00000000 15.00000000" energy_frozen_part=0.00000000 Properties=species:S:1:pos:R:3:velocities:R:3:Z:I:1
H        10.92653212       2.37957291       3.50846537         0.00000000       0.00000000       0.00000000          1
H         8.38924163       3.21514328       4.32591264         0.00000000       0.00000000       0.00000000          1
H        10.16244503       2.11346453       6.18234505         0.00000000       0.00000000       0.00000000          1
H        12.09034638       4.00250093       5.46191503         0.00000000       0.00000000       0.00000000          1
H        10.31713998       5.10418312       3.60547818         0.00000000       0.00000000       0.00000000          1
H         9.55304695       4.83807480       6.27935980         0.00000000       0.00000000       0.00000000          1
6
pbc=[F, F, F] list_num_par=6 frozen=false iter=20000 energy=-1.26974174 Lattice="15.00000000 0.00000000 0.00000000 0.00000000 15.00000000 0.00000000 0.00000000 0.00000000 15.00000000" energy_frozen_part=0.00000000 Properties=species:S:1:pos:R:3:velocities:R:3:Z:I:1
H        10.92557658       2.38009621       3.50796845         0.00000000       0.00000000       0.00000000          1
H         8.38854451       3.21577443       4.32615410         0.00000000       0.00000000       0.00000000          1
H        10.16186766       2.11307554       6.18186911         0.00000000       0.00000000       0.00000000          1
H        12.08997201       4.00207246       5.46186343         0.00000000       0.00000000       0.00000000          1
H        10.31664591       5.10476959       3.60614641         0.00000000       0.00000000       0.00000000          1
H         9.55294407       4.83775065       6.28004327         0.00000000       0.00000000       0.00000000          1
6
pbc=[F, F, F] list_num_par=6 frozen=false iter=20000 energy=-1.26974174 Lattice="15.00000000 0.00000000 0.00000000 0.00000000 15.00000000 0.00000000 0.00000000 0.00000000 15.00000000" energy_frozen_part=0.00000000 Properties=species:S:1:pos:R:3:velocities:R:3:Z:I:1
H        10.87300523       2.39245983       3.49425285         0.00000000       0.00000000       0.00000000          1
H         8.33049064       3.24454304       4.27773854         0.00000000       0.00000000       0.00000000          1
H        10.07894319       2.14995664       6.16163930         0.00000000       0.00000000       0.00000000          1
H        12.02230868       4.02559656       5.44777211         0.00000000       0.00000000       0.00000000          1
H        10.27385960       5.12017809       3.56386648         0.00000000       0.00000000       0.00000000          1
H         9.47979653       4.87768865       6.23125693         0.00000000       0.00000000       0.00000000          1
6
pbc=[F, F, F] list_num_par=6 frozen=false iter=20000 energy=-1.26974174 Lattice="15.00000000 0.00000000 0.00000000 0.00000000 15.00000000 0.00000000 0.00000000 0.00000000 15.00000000" energy_frozen_part=0.00000000 Properties=species:S:1:pos:R:3:velocities:R:3:Z:I:1
H        10.87298212       2.39244194       3.49428261         0.00000000       0.00000000       0.00000000          1
H         8.33045841       3.24455488       4.27769986         0.00000000       0.00000000       0.00000000          1
H        10.07881814       2.14990077       6.16163950         0.00000000       0.00000000       0.00000000          1
H        12.02224599       4.02550966       5.44789266         0.00000000       0.00000000       0.00000000          1
H        10.27388759       5.12016792       3.56395597         0.00000000       0.00000000       0.00000000          1
H         9.47971846       4.87762751       6.23130550         0.00000000       0.00000000       0.00000000          1
6
pbc=[F, F, F] list_num_par=6 frozen=false iter=20000 energy=-1.26974174 Lattice="15.00000000 0.00000000 0.00000000 0.00000000 15.00000000 0.00000000 0.00000000 0.00000000 15.00000000" energy_frozen_part=0.00000000 Properties=species:S:1:pos:R:3:velocities:R:3:Z:I:1
H        10.87300619       2.39224551       3.49438990         0.00000000       0.00000000       0.00000000          1
H         8.33051918       3.24451560       4.27775106         0.00000000       0.00000000       0.00000000          1
H        10.07883868       2.14989409       6.16176309         0.00000000       0.00000000       0.00000000          1
H        12.02234120       4.02538938       5.44788416         0.00000000       0.00000000       0.00000000          1
H        10.27401719       5.12001122       3.56388600         0.00000000       0.00000000       0.00000000          1
H         9.47985289       4.87765106       6.23125746         0.00000000       0.00000000       0.00000000          1
6
pbc=[F, F, F] list_num_par=6 frozen=false iter=20000 energy=-1.26974174 Lattice="15.00000000 0.00000000 0.00000000 0.00000000 15.00000000 0.00000000 0.00000000 0.00000000 15.00000000" energy_frozen_part=0.00000000 Properties=species:S:1:pos:R:3:velocities:R:3:Z:I:1
H        10.87294723       2.39247125       3.49424900         0.00000000       0.00000000       0.00000000          1
H         8.33044646       3.24461939       4.27771732         0.00000000       0.00000000       0.00000000          1
H        10.07883321       2.14994384       6.16161966         0.00000000       0.00000000       0.00000000          1
H        12.02227694       4.02553147       5.44782108         0.00000000       0.00000000       0.00000000          1
H        10.27387710       5.12021315       3.56391909         0.00000000       0.00000000       0.00000000          1
H         9.47978102       4.87767719       6.23128953         0.00000000       0.00000000       0.00000000          1
6
pbc=[F, F, F] list_num_par=6 frozen=false iter=20000 energy=-1.26974174 Lattice="15.00000000 0.00000000 0.00000000 0.00000000 15.00000000 0.00000000 0.00000000 0.00000000 15.00000000" energy_frozen_part=0.00000000 Properties=species:S:1:pos:R:3:velocities:R:3:Z:I:1
H        10.87165664       2.39165220       3.49502517         0.00000000       0.00000000       0.00000000          1
H         8.33001952       3.24541199       4.27952617         0.00000000       0.00000000       0.00000000          1
H        10.07854017       2.14975220       6.16274189         0.00000000       0.00000000       0.00000000          1
H        12.02283119       4.02409982       5.44802415         0.00000000       0.00000000       0.00000000          1
H        10.27430794       5.11977026       3.56481639         0.00000000       0.00000000       0.00000000          1
H         9.48118721       4.87785754       6.23252702         0.00000000       0.00000000       0.00000000          1
6
pbc=[F, F, F] list_num_par=6 frozen=false iter=20000 energy=-1.26974174 Lattice="15.00000000 0.00000000 0.00000000 0.00000000 15.00000000 0.00000000 0.00000000 0.00000000 15.00000000" energy_frozen_part=0.00000000 Properties=species:S:1:pos:R:3:velocities:R:3:Z:I:1
H        10.87166516       2.39162271       3.49502245         0.00000000       0.00000000       0.00000000          1
H         8.32999794       3.24534989       4.27947777         0.00000000       0.00000000       0.00000000          1
H        10.07850303       2.14975583       6.16273704         0.00000000       0.00000000       0.00000000          1
H        12.02277508       4.02412148       5.44801396         0.00000000       0.00000000       0.00000000          1
H        10.27426328       5.11972305       3.56475653         0.00000000       0.00000000       0.00000000          1
H         9.48110503       4.87786318       6.23246837         0.00000000       0.00000000       0.00000000          1
6
pbc=[F, F, F] list_num_par=6 frozen=false iter=20000 energy=-1.26974174 Lattice="15.00000000 0.00000000 0.00000000 0.00000000 15.00000000 0.00000000 0.00000000 0.00000000 15.00000000" energy_frozen_part=0.00000000 Properties=species:S:1:pos:R:3:velocities:R:3:Z:I:1
H        10.87169325       2.39162839       3.49502859         0.00000000       0.00000000       0.00000000          1
H         8.33004514       3.24540449       4.27948556         0.00000000       0.00000000       0.00000000          1
H        10.07853058       2.14975984       6.16274171         0.00000000       0.00000000       0.00000000          1
H        12.02285186       4.02409145       5.44802589         0.00000000       0.00000000       0.00000000          1
H        10.27435895       5.11973807       3.56477861         0.00000000       0.00000000       0.00000000          1
H         9.48120186       4.87786853       6.23248559         0.00000000       0.00000000       0.00000000          1
6
pbc=[F, F, F] list_num_par=6 frozen=false iter=20000 energy=-1.26974174 Lattice="15.00000000 0.00000000 0.00000000 0.00000000 15.00000000 0.00000000 0.00000000 0.00000000 15.00000000" energy_frozen_part=0.00000000 Properties=species:S:1:pos:R:3:velocities:R:3:Z:I:1
H        10.87297999       2.39248584       3.49424996         0.00000000       0.00000000       0.00000000          1
H         8.33046794       3.24459014       4.27774954         0.00000000       0.00000000       0.00000000          1
H        10.07891284       2.14995099       6.16163031         0.00000000       0.00000000       0.00000000          1
H        12.02230434       4.02557486       5.44780119         0.00000000       0.00000000       0.00000000          1
H        10.27386715       5.12021401       3.56391945         0.00000000       0.00000000       0.00000000          1
H         9.47980408       4.87768140       6.23130320         0.00000000       0.00000000       0.00000000          1
6
pbc=[F, F, F] list_num_par=6 frozen=false iter=20000 energy=-1.26974174 Lattice="15.00000000 0.00000000 0.00000000 0.00000000 15.00000000 0.00000000 0.00000000 0.00000000 15.00000000" energy_frozen_part=0.00000000 Properties=species:S:1:pos:R:3:velocities:R:3:Z:I:1
H        10.92636664       2.37940081       3.50852022         0.00000000       0.00000000       0.00000000          1
H         8.38912762       3.21524231       4.32588938         0.00000000       0.00000000       0.00000000          1
H        10.16224462       2.11357347       6.18242102         0.00000000       0.00000000       0.00000000          1
H        12.09029058       4.00240565       5.46183885         0.00000000       0.00000000       0.00000000          1
H        10.31717594       5.10407327       3.60531455         0.00000000       0.00000000       0.00000000          1
H         9.55304770       4.83823776       6.27920949         0.00000000       0.00000000       0.00000000          1
6
pbc=[F, F, F] list_num_par=6 frozen=false iter=20000 energy=-1.26974174 Lattice="15.00000000 0.00000000 0.00000000 0.00000000 15.00000000 0.00000000 0.00000000 0.00000000 15.00000000" energy_frozen_part=0.00000000 Properties=species:S:1:pos:R:3:velocities:R:3:Z:I:1
H        10.87167498       2.39165536       3.49500969         0.00000000       0.00000000       0.00000000          1
H         8.33002832       3.24538730       4.27951459         0.00000000       0.00000000       0.00000000          1
H        10.07855220       2.14972201       6.16272400         0.00000000       0.00000000       0.00000000          1
H        12.02283475       4.02410254       5.44802684         0.00000000       0.00000000       0.00000000          1
H        10.27431362       5.11975760       3.56481445         0.00000000       0.00000000       0.00000000          1
H         9.48118234       4.87782889       6.23252998         0.00000000       0.00000000       0.00000000          1
6
pbc=[F, F, F] list_num_par=6 frozen=false iter=20000 energy=-1.26974174 Lattice="15.00000000 0.00000000 0.00000000 0.00000000 15.00000000 0.00000000 0.00000000 0.00000000 15.00000000" energy_frozen_part=0.00000000 Properties=species:S:1:pos:R:3:velocities:R:3:Z:I:1
H        10.87166970       2.39162051       3.49502902         0.00000000       0.00000000       0.00000000          1
H         8.33000782       3.24536823       4.27947967         0.00000000       0.00000000       0.00000000          1
H        10.07850843       2.14976976       6.16273639         0.00000000       0.00000000       0.00000000          1
H        12.02278636       4.02413386       5.44800347         0.00000000       0.00000000       0.00000000          1
H        10.27428009       5.11973121       3.56474674         0.00000000       0.00000000       0.00000000          1
H         9.48112692       4.87787109       6.23245789         0.00000000       0.00000000       0.00000000          1
6
pbc=[F, F, F] list_num_par=6 frozen=false iter=20000 energy=-1.26974174 Lattice="15.00000000 0.00000000 0.00000000 0.00000000 15.00000000 0.00000000 0.00000000 0.00000000 15.00000000" energy_frozen_part=0.00000000 Properties=species:S:1:pos:R:3:velocities:R:3:Z:I:1
H        10.92554786       2.38011292       3.50793346         0.00000000       0.00000000       0.00000000          1
H         8.38853702       3.21578101       4.32617214         0.00000000       0.00000000       0.00000000          1
H        10.16188194       2.11304475       6.18183584         0.00000000       0.00000000       0.00000000          1
H        12.08996696       4.00205782       5.46183311         0.00000000       0.00000000       0.00000000          1
H        10.31661385       5.10479091       3.60616050         0.00000000       0.00000000       0.00000000          1
H         9.55295536       4.83772013       6.28007438         0.00000000       0.00000000       0.00000000          1
6
pbc=[F, F, F] list_num_par=6 frozen=false iter=20000 energy=-1.26974174 Lattice="15.00000000 0.00000000 0.00000000 0.00000000 15.00000000 0.00000000 0.00000000 0.00000000 15.00000000" energy_frozen_part=0.00000000 Properties=species:S:1:pos:R:3:velocities:R:3:Z:I:1
H        10.92566631       2.38014067       3.50807431         0.00000000       0.00000000       0.00000000          1
H         8.38859296       3.21575022       4.32618618         0.00000000       0.00000000       0.00000000          1
H        10.16195507       2.11323501       6.18197646         0.00000000       0.00000000       0.00000000          1
H        12.08996645       4.00228576       5.46187966         0.00000000       0.00000000       0.00000000          1
H        10.31661701       5.10479073       3.60608625         0.00000000       0.00000000       0.00000000          1
H         9.55289451       4.83788116       6.27999800         0.00000000       0.00000000       0.00000000          1
6
pbc=[F, F, F] list_num_par=6 frozen=false iter=20000 energy=-1.26974174 Lattice="15.00000000 0.00000000 0.00000000 0.00000000 15.00000000 0.00000000 0.00000000 0.00000000 15.00000000" energy_frozen_part=0.00000000 Properties=species:S:1:pos:R:3:velocities:R:3:Z:I:1
H        10.92592972       2.37884433       3.50837095         0.00000000       0.00000000       0.00000000          1
H         8.38888955       3.21526767       4.32574890         0.00000000       0.00000000       0.00000000          1
H        10.16152117       2.11262040       6.18214713         0.00000000       0.00000000       0.00000000          1
H        12.09020640       4.00102013       5.46216897         0.00000000       0.00000000       0.00000000          1
H        10.31757587       5.10367465       3.60576533         0.00000000       0.00000000       0.00000000          1
H         9.55316675       4.83744741       6.27954540         0.00000000       0.00000000       0.00000000          1
6
pbc=[F, F, F] list_num_par=6 frozen=false iter=20000 energy=-1.26974174 Lattice="15.00000000 0.00000000 0.00000000 0.00000000 15.00000000 0.00000000 0.00000000 0.00000000 15.00000000" energy_frozen_part=0.00000000 Properties=species:S:1:pos:R:3:velocities:R:3:Z:I:1
H        10.92594738       2.37883698       3.50838114         0.00000000       0.00000000       0.00000000          1
H         8.38889251       3.21522984       4.32573770         0.00000000       0.00000000       0.00000000          1
H        10.16152742       2.11261518       6.18215838         0.00000000       0.00000000       0.00000000          1
H        12.09018078       4.00104458       5.46216972         0.00000000       0.00000000       0.00000000          1
H        10.31755725       5.10365842       3.60574629         0.00000000       0.00000000       0.00000000          1
H         9.55313228       4.83744426       6.27951822         0.00000000       0.00000000       0.00000000          1
6
pbc=[F, F, F] list_num_par=6 frozen=false iter=20000 energy=-1.26974174 Lattice="15.00000000 0.00000000 0.00000000 0.00000000 15.00000000 0.00000000 0.00000000 0.00000000 15.00000000" energy_frozen_part=0.00000000 Properties=species:S:1:pos:R:3:velocities:R:3:Z:I:1
H        10.92643922       2.37942108       3.50852095         0.00000000       0.00000000       0.00000000          1
H         8.38917925       3.21523281       4.32582938         0.00000000       0.00000000       0.00000000          1
H        10.16225039       2.11356641       6.18239240         0.00000000       0.00000000       0.00000000          1
H        12.09030350       4.00241745       5.46187051         0.00000000       0.00000000       0.00000000          1
H        10.31723518       5.10408164       3.60530722         0.00000000       0.00000000       0.00000000          1
H         9.55303707       4.83822396       6.27917812         0.00000000       0.00000000       0.00000000          1
6
pbc=[F, F, F] list_num_par=6 frozen=false iter=20000 energy=-1.26974174 Lattice="15.00000000 0.00000000 0.00000000 0.00000000 15.00000000 0.00000000 0.00000000 0.00000000 15.00000000" energy_frozen_part=0.00000000 Properties=species:S:1:pos:R:3:velocities:R:3:Z:I:1
H        10.87162137       2.39165611       3.49499832         0.00000000       0.00000000       0.00000000          1
H         8.32997679       3.24542948       4.27947835         0.00000000       0.00000000       0.00000000          1