6
pbc=[F, F, F] list_num_par=6 frozen=false iter=9 energy=437.20918139 Lattice="15.00000000 0.00000000 0.00000000 0.00000000 15.00000000 0.00000000 0.00000000 0.00000000 15.00000000" energy_frozen_part=0.00000000 Properties=species:S:1:pos:R:3:velocities:R:3:Z:I:1
H        10.82942437      14.12102078       4.25506898         0.00000000       0.00000000       0.00000000          1
H         2.63404659       9.81973889       2.35383054         0.00000000       0.00000000       0.00000000          1
H         9.57471891       7.17802689       2.07473732         0.00000000       0.00000000       0.00000000          1
H        14.53046394      11.05921697      10.05497325         0.00000000       0.00000000       0.00000000          1
H         9.34471923       6.82726213      10.68450433         0.00000000       0.00000000       0.00000000          1
H        13.77424350      10.21349384       9.24848272         0.00000000       0.00000000       0.00000000          1
6
pbc=[F, F, F] list_num_par=6 frozen=false iter=19 energy=9.52059877 Lattice="15.00000000 0.00000000 0.00000000 0.00000000 15.00000000 0.00000000 0.00000000 0.00000000 15.00000000" energy_frozen_part=0.00000000 Properties=species:S:1:pos:R:3:velocities:R:3:Z:I:1
H         1.27026183      11.20726834      10.03813902         0.00000000       0.00000000       0.00000000          1
H         4.70933260      12.37032423       4.28920232         0.00000000       0.00000000       0.00000000          1
H        12.53610565       2.16834238       1.88200087         0.00000000       0.00000000       0.00000000          1
H         4.25339852      10.94746770       3.11935275         0.00000000       0.00000000       0.00000000          1
H         3.18290193      14.56831980       4.75134032         0.00000000       0.00000000       0.00000000          1
H         1.62732759      13.44798804       5.87033650         0.00000000       0.00000000       0.00000000          1
6
pbc=[F, F, F] list_num_par=6 frozen=false iter=29 energy=0.62213954 Lattice="15.00000000 0.00000000 0.00000000 0.00000000 15.00000000 0.00000000 0.00000000 0.00000000 15.00000000" energy_frozen_part=0.00000000 Properties=species:S:1:pos:R:3:velocities:R:3:Z:I:1
H         8.59019236       8.60303160       1.91630488         0.00000000       0.00000000       0.00000000          1
H        14.22622856       3.13629147       1.32948626         0.00000000       0.00000000       0.00000000          1
H         9.65939814      13.20280884       5.09052444         0.00000000       0.00000000       0.00000000          1
H        10.21272131       8.26089800      10.71058014         0.00000000       0.00000000       0.00000000          1
H         6.81155173       7.33585083       2.48547886         0.00000000       0.00000000       0.00000000          1
H         0.27270740       5.12511755      13.09221726         0.00000000       0.00000000       0.00000000          1
6
pbc=[F, F, F] list_num_par=6 frozen=false iter=39 energy=0.02953188 Lattice="15.00000000 0.00000000 0.00000000 0.00000000 15.00000000 0.00000000 0.00000000 0.00000000 15.00000000" energy_frozen_part=0.00000000 Properties=species:S:1:pos:R:3:velocities:R:3:Z:I:1
H         6.10883457       2.60451430       1.44593777         0.00000000       0.00000000       0.00000000          1
H         4.79860313       9.37256476       1.77556242         0.00000000       0.00000000       0.00000000          1
H         5.31946935       9.77404845       7.92597780         0.00000000       0.00000000       0.00000000          1
H         2.45150052       6.49960431       4.86192652         0.00000000       0.00000000       0.00000000          1
H         9.00757701      13.24733098       5.33966487         0.00000000       0.00000000       0.00000000          1
H         4.46628675       7.81286133       4.94457319         0.00000000       0.00000000       0.00000000          1
6
pbc=[F, F, F] list_num_par=6 frozen=false iter=49 energy=-0.00397980 Lattice="15.00000000 0.00000000 0.00000000 0.00000000 15.00000000 0.00000000 0.00000000 0.00000000 15.00000000" energy_frozen_part=0.00000000 Properties=species:S:1:pos:R:3:velocities:R:3:Z:I:1
H        12.85273846      14.92135815      13.55185756         0.00000000       0.00000000       0.00000000          1
H         5.89777638      11.38583963       6.14170887         0.00000000       0.00000000       0.00000000          1
H         4.87393571      12.79141195      13.99464929         0.00000000       0.00000000       0.00000000          1
H         4.05396271       3.45193956       9.70596347         0.00000000       0.00000000       0.00000000          1
H        10.44822880       8.38833727       7.65632575         0.00000000       0.00000000       0.00000000          1
H        12.01234585       1.00125139      12.13913965         0.00000000       0.00000000       0.00000000          1
6
pbc=[F, F, F] list_num_par=6 frozen=false iter=59 energy=-0.00593015 Lattice="15.00000000 0.00000000 0.00000000 0.00000000 15.00000000 0.00000000 0.00000000 0.00000000 15.00000000" energy_frozen_part=0.00000000 Properties=species:S:1:pos:R:3:velocities:R:3:Z:I:1
H        14.96752603       9.73764478       6.96015945         0.00000000       0.00000000       0.00000000          1
H        10.75620190      14.44049320       0.67124828         0.00000000       0.00000000       0.00000000          1
H         0.06843964       7.52470673       0.85022264         0.00000000       0.00000000       0.00000000          1
H        12.97983847       3.75674587      11.21199938         0.00000000       0.00000000       0.00000000          1
H        13.36824926       1.34945857       5.26396999         0.00000000       0.00000000       0.00000000          1
H        11.13411963       9.13914741      11.97068093         0.00000000       0.00000000       0.00000000          1
6
pbc=[F, F, F] list_num_par=6 frozen=false iter=69 energy=-0.01038802 Lattice="15.00000000 0.00000000 0.00000000 0.00000000 15.00000000 0.00000000 0.00000000 0.00000000 15.00000000" energy_frozen_part=0.00000000 Properties=species:S:1:pos:R:3:velocities:R:3:Z:I:1
H        13.90816379       0.20269802      14.38956388         0.00000000       0.00000000       0.00000000          1
H        14.81845073      13.33077741       0.29011528         0.00000000       0.00000000       0.00000000          1
H         7.11584981       2.23517511       9.38187593         0.00000000       0.00000000       0.00000000          1
H         0.96477829      12.33854238       0.88315766         0.00000000       0.00000000       0.00000000          1
H         6.37622695       1.90532240       4.87819524         0.00000000       0.00000000       0.00000000          1
H         7.84057061      12.19808517       9.43337953         0.00000000       0.00000000       0.00000000          1
6
pbc=[F, F, F] list_num_par=6 frozen=false iter=79 energy=-0.01666425 Lattice="15.00000000 0.00000000 0.00000000 0.00000000 15.00000000 0.00000000 0.00000000 0.00000000 15.00000000" energy_frozen_part=0.00000000 Properties=species:S:1:pos:R:3:velocities:R:3:Z:I:1
H        12.39569467       6.34386385       5.92884411         0.00000000       0.00000000       0.00000000          1
H        10.58751078       2.61825693       7.96671307         0.00000000       0.00000000       0.00000000          1
H         8.89817609      12.38836425       2.89813277         0.00000000       0.00000000       0.00000000          1
H        11.51692967       7.05241701       0.76388247         0.00000000       0.00000000       0.00000000          1
H         4.07448001       1.66970223       2.25715168         0.00000000       0.00000000       0.00000000          1
H        14.64644895      14.38676781       8.08851403         0.00000000       0.00000000       0.00000000          1
6
pbc=[F, F, F] list_num_par=6 frozen=false iter=89 energy=-0.01953563 Lattice="15.00000000 0.00000000 0.00000000 0.00000000 15.00000000 0.00000000 0.00000000 0.00000000 15.00000000" energy_frozen_part=0.00000000 Properties=species:S:1:pos:R:3:velocities:R:3:Z:I:1
H        10.83898646      13.24831132       5.32963290         0.00000000       0.00000000       0.00000000          1
H         6.95570185      13.15681658      10.52012379         0.00000000       0.00000000       0.00000000          1
H         5.04284711       4.90656013       1.03603803         0.00000000       0.00000000       0.00000000          1
H        13.40287527      10.17276665       6.46724902         0.00000000       0.00000000       0.00000000          1
H         2.35861764       6.51163661      14.34874528         0.00000000       0.00000000       0.00000000          1
H        11.64146930       2.92888950      10.06763973         0.00000000       0.00000000       0.00000000          1
6
pbc=[F, F, F] list_num_par=6 frozen=false iter=99 energy=-0.02401629 Lattice="15.00000000 0.00000000 0.00000000 0.00000000 15.00000000 0.00000000 0.00000000 0.00000000 15.00000000" energy_frozen_part=0.00000000 Properties=species:S:1:pos:R:3:velocities:R:3:Z:I:1
H         7.35353115       2.92468190       6.90527507         0.00000000       0.00000000       0.00000000          1
H         7.45826058       1.03208894       3.28458902         0.00000000       0.00000000       0.00000000          1
H        12.25497374       4.17161574       2.22747044         0.00000000       0.00000000       0.00000000          1
H         2.08365832       6.40737384       1.54937876         0.00000000       0.00000000       0.00000000          1
H        10.37564083      11.39491989       9.56516177         0.00000000       0.00000000       0.00000000          1
H         0.39808509       9.13242452       8.36729133         0.00000000       0.00000000       0.00000000          1
6
pbc=[F, F, F] list_num_par=6 frozen=false iter=109 energy=-0.03034841 Lattice="15.00000000 0.00000000 0.00000000 0.00000000 15.00000000 0.00000000 0.00000000 0.00000000 15.00000000" energy_frozen_part=0.00000000 Properties=species:S:1:pos:R:3:velocities:R:3:Z:I:1
H         7.25727378       5.51800109       4.44470539         0.00000000       0.00000000       0.00000000          1
H         6.33762462       0.33579995      10.38689280         0.00000000       0.00000000       0.00000000          1
H         0.13438510      11.71197540       2.17179254         0.00000000       0.00000000       0.00000000          1
H         1.54436086      12.52666594       8.73626219         0.00000000       0.00000000       0.00000000          1
H         4.09168407       8.70740937       0.35773777         0.00000000       0.00000000       0.00000000          1
H         5.13821541      11.13433837       9.77529999         0.00000000       0.00000000       0.00000000          1
6
pbc=[F, F, F] list_num_par=6 frozen=false iter=119 energy=-0.03469907 Lattice="15.00000000 0.00000000 0.00000000 0.00000000 15.00000000 0.00000000 0.00000000 0.00000000 15.00000000" energy_frozen_part=0.00000000 Properties=species:S:1:pos:R:3:velocities:R:3:Z:I:1
H         2.83932255       7.35185378       2.12520121         0.00000000       0.00000000       0.00000000          1
H        13.24751630       2.56772102       6.21992083         0.00000000       0.00000000       0.00000000          1
H         6.32089596      11.67137948       9.11959391         0.00000000       0.00000000       0.00000000          1
H        14.96141436       8.97461417       1.22183713         0.00000000       0.00000000       0.00000000          1
H         7.18100654       8.04223870       9.27342031         0.00000000       0.00000000       0.00000000          1
H         6.85514381       1.52345494      10.57385177         0.00000000       0.00000000       0.00000000          1
6
pbc=[F, F, F] list_num_par=6 frozen=false iter=129 energy=-0.03798780 Lattice="15.00000000 0.00000000 0.00000000 0.00000000 15.00000000 0.00000000 0.00000000 0.00000000 15.00000000" energy_frozen_part=0.00000000 Properties=species:S:1:pos:R:3:velocities:R:3:Z:I:1
H         2.26845832       1.20314485       6.35163702         0.00000000       0.00000000       0.00000000          1
H        10.96812306       2.02423533       0.20798002         0.00000000       0.00000000       0.00000000          1
H        11.28607049      12.97412461       5.42170631         0.00000000       0.00000000       0.00000000          1
H         9.19045224      12.71782911       0.17351258         0.00000000       0.00000000       0.00000000          1
H         9.05531964       7.70716239       6.07727711         0.00000000       0.00000000       0.00000000          1
H         5.64816145       6.47459264       7.16709371         0.00000000       0.00000000       0.00000000          1
6
pbc=[F, F, F] list_num_par=6 frozen=false iter=139 energy=-0.04649845 Lattice="15.00000000 0.00000000 0.00000000 0.00000000 15.00000000 0.00000000 0.00000000 0.00000000 15.00000000" energy_frozen_part=0.00000000 Properties=species:S:1:pos:R:3:velocities:R:3:Z:I:1
H         3.36602777       0.32771277      10.95477762         0.00000000       0.00000000       0.00000000          1
H         9.90599823       4.44747786       6.03357886         0.00000000       0.00000000       0.00000000          1
H        12.18389642      12.68530964       4.14707733         0.00000000       0.00000000       0.00000000          1
H        12.17618114       2.77835126       8.77679037         0.00000000       0.00000000       0.00000000          1
H         4.34859384       2.89473436       6.69021919         0.00000000       0.00000000       0.00000000          1
H         9.25637380       9.16232626       3.43973270         0.00000000       0.00000000       0.00000000          1
6
pbc=[F, F, F] list_num_par=6 frozen=false iter=149 energy=-0.05062678 Lattice="15.00000000 0.00000000 0.00000000 0.00000000 15.00000000 0.00000000 0.00000000 0.00000000 15.00000000" energy_frozen_part=0.00000000 Properties=species:S:1:pos:R:3:velocities:R:3:Z:I:1
H         8.22760041       2.17612402       9.75791791         0.00000000       0.00000000       0.00000000          1
H         0.46685006       8.79741542      14.33045142         0.00000000       0.00000000       0.00000000          1
H         1.31634901      12.90032506      10.05034700         0.00000000       0.00000000       0.00000000          1
H        13.75001397       4.53579634       2.07605957         0.00000000       0.00000000       0.00000000          1
H         5.37054444       6.78678911       7.74125799         0.00000000       0.00000000       0.00000000          1
H         2.82393802      12.01914299       6.96641472         0.00000000       0.00000000       0.00000000          1
6
pbc=[F, F, F] list_num_par=6 frozen=false iter=159 energy=-0.05704181 Lattice="15.00000000 0.00000000 0.00000000 0.00000000 15.00000000 0.00000000 0.00000000 0.00000000 15.00000000" energy_frozen_part=0.00000000 Properties=species:S:1:pos:R:3:velocities:R:3:Z:I:1
H        13.21496995       7.53509065       1.39872135         0.00000000       0.00000000       0.00000000          1
H         4.89721623       0.57987540       9.28857602         0.00000000       0.00000000       0.00000000          1
H         6.55124290       7.04727748       1.54028797         0.00000000       0.00000000       0.00000000          1
H         2.52566668       3.05736916       6.50473233         0.00000000       0.00000000       0.00000000          1
H        10.76327196       3.22284606       9.36316237         0.00000000       0.00000000       0.00000000          1
H         0.50425156       5.94480835       5.86052808         0.00000000       0.00000000       0.00000000          1
6
pbc=[F, F, F] list_num_par=6 frozen=false iter=169 energy=-0.06055218 Lattice="15.00000000 0.00000000 0.00000000 0.00000000 15.00000000 0.00000000 0.00000000 0.00000000 15.00000000" energy_frozen_part=0.00000000 Properties=species:S:1:pos:R:3:velocities:R:3:Z:I:1
H         2.71669062       6.48417134      11.13273434         0.00000000       0.00000000       0.00000000          1
H         8.37468923       9.74298999       9.10721594         0.00000000       0.00000000       0.00000000          1
H         9.84778030      14.40057310       1.92274593         0.00000000       0.00000000       0.00000000          1
H         7.35472533      11.70994582       4.48159243         0.00000000       0.00000000       0.00000000          1
H        14.32554490       7.65049421       3.35511272         0.00000000       0.00000000       0.00000000          1
H         1.75404311       6.69939609      14.55657260         0.00000000       0.00000000       0.00000000          1
6
pbc=[F, F, F] list_num_par=6 frozen=false iter=179 energy=-0.06488450 Lattice="15.00000000 0.00000000 0.00000000 0.00000000 15.00000000 0.00000000 0.00000000 0.00000000 15.00000000" energy_frozen_part=0.00000000 Properties=species:S:1:pos:R:3:velocities:R:3:Z:I:1
H         9.32360484      14.48063846       9.23270501         0.00000000       0.00000000       0.00000000          1
H         6.09591642       6.39854738       8.16684008         0.00000000       0.00000000       0.00000000          1
H         5.69437260       9.76621981       7.40222250         0.00000000       0.00000000       0.00000000          1
H        13.38091281       7.69998834       9.42278547         0.00000000       0.00000000       0.00000000          1
H         8.97752166       3.96913432       5.66388773         0.00000000       0.00000000       0.00000000          1
H         9.16745689       1.55633636      11.96317562         0.00000000       0.00000000       0.00000000          1
6
pbc=[F, F, F] list_num_par=6 frozen=false iter=189 energy=-0.07341328 Lattice="15.00000000 0.00000000 0.00000000 0.00000000 15.00000000 0.00000000 0.00000000 0.00000000 15.00000000" energy_frozen_part=0.00000000 Properties=species:S:1:pos:R:3:velocities:R:3:Z:I:1
H         2.91181257       5.36890214      11.66248328         0.00000000       0.00000000       0.00000000          1
H         0.13233437       7.13874960      10.96795623         0.00000000       0.00000000       0.00000000          1
H         2.75906776       2.13657826       2.36367712         0.00000000       0.00000000       0.00000000          1
H         8.84447198       8.70462918       0.56937968         0.00000000       0.00000000       0.00000000          1
H         9.74756715       4.34510440       5.73139314         0.00000000       0.00000000       0.00000000          1
H         3.61186664       2.24223920       6.69377236         0.00000000       0.00000000       0.00000000          1
6
pbc=[F, F, F] list_num_par=6 frozen=false iter=199 energy=-0.07768948 Lattice="15.00000000 0.00000000 0.00000000 0.00000000 15.00000000 0.00000000 0.00000000 0.00000000 15.00000000" energy_frozen_part=0.00000000 Properties=species:S:1:pos:R:3:velocities:R:3:Z:I:1
H        11.84364978      13.83748788       2.74193850         0.00000000       0.00000000       0.00000000          1
H         1.24468481       9.80900748       5.59227955         0.00000000       0.00000000       0.00000000          1
H         6.38901615       0.78243344       2.22257809         0.00000000       0.00000000       0.00000000          1
H        13.13084408      11.09652445       3.85642412         0.00000000       0.00000000       0.00000000          1
H        12.01005770       4.63566906       2.88170964         0.00000000       0.00000000       0.00000000          1
H        12.38246879       7.07054884       7.53421656         0.00000000       0.00000000       0.00000000          1
6
pbc=[F, F, F] list_num_par=6 frozen=false iter=209 energy=-0.08243002 Lattice="15.00000000 0.00000000 0.00000000 0.00000000 15.00000000 0.00000000 0.00000000 0.00000000 15.00000000" energy_frozen_part=0.00000000 Properties=species:S:1:pos:R:3:velocities:R:3:Z:I:1
H         4.99357788       4.08867723      10.02869775         0.00000000       0.00000000       0.00000000          1
H         9.20368843       6.69891300       0.18006639         0.00000000       0.00000000       0.00000000          1
H         1.06616370       6.14769824      12.30697047         0.00000000       0.00000000       0.00000000          1
H         6.43431071      12.68120617      13.10723158         0.00000000       0.00000000       0.00000000          1
H         5.43098868       7.70677139       9.09328957         0.00000000       0.00000000       0.00000000          1
H         8.04221154       8.42663125      11.79830064         0.00000000       0.00000000       0.00000000          1
6
pbc=[F, F, F] list_num_par=6 frozen=false iter=219 energy=-0.08771309 Lattice="15.00000000 0.00000000 0.00000000 0.00000000 15.00000000 0.00000000 0.00000000 0.00000000 15.00000000" energy_frozen_part=0.00000000 Properties=species:S:1:pos:R:3:velocities:R:3:Z:I:1
H         7.01746047      10.29094909       2.12496532         0.00000000       0.00000000       0.00000000          1
H        10.44233046      11.40922315       2.33089966         0.00000000       0.00000000       0.00000000          1
H         2.21302216      11.05787945      14.42315704         0.00000000       0.00000000       0.00000000          1
H         2.83739762      11.24719602       1.68573915         0.00000000       0.00000000       0.00000000          1
H         0.90441904       7.53615207       8.47051224         0.00000000       0.00000000       0.00000000          1
H         9.64603342      11.73763019       6.12206708         0.00000000       0.00000000       0.00000000          1
6
pbc=[F, F, F] list_num_par=6 frozen=false iter=229 energy=-0.09103540 Lattice="15.00000000 0.00000000 0.00000000 0.00000000 15.00000000 0.00000000 0.00000000 0.00000000 15.00000000" energy_frozen_part=0.00000000 Properties=species:S:1:pos:R:3:velocities:R:3:Z:I:1
H         2.19986959       7.16118919       2.40233130         0.00000000       0.00000000       0.00000000          1
H         9.53409020      14.63860464       3.71739213         0.00000000       0.00000000       0.00000000          1
H         2.72279234       2.04222582       1.15742723         0.00000000       0.00000000       0.00000000          1
H        13.66659583       8.43075901       6.18151775         0.00000000       0.00000000       0.00000000          1
H         4.57687989       6.01831151       3.99609524         0.00000000       0.00000000       0.00000000          1
H        12.19512098       7.25326599      13.75100496         0.00000000       0.00000000       0.00000000          1
6
pbc=[F, F, F] list_num_par=6 frozen=false iter=239 energy=-0.09351032 Lattice="15.00000000 0.00000000 0.00000000 0.00000000 15.00000000 0.00000000 0.00000000 0.00000000 15.00000000" energy_frozen_part=0.00000000 Properties=species:S:1:pos:R:3:velocities:R:3:Z:I:1
H         3.44936083      14.35279845       7.74110995         0.00000000       0.00000000       0.00000000          1
H         1.27901486       5.61653729       7.65469442         0.00000000       0.00000000       0.00000000          1
H         5.94863344       1.45244198       3.67867927         0.00000000       0.00000000       0.00000000          1
H        12.69649786       0.82431491       0.07218350         0.00000000       0.00000000       0.00000000          1
H        12.29836078       4.68123718       9.02011621         0.00000000       0.00000000       0.00000000          1
H        11.81670174       2.43435835       2.02914036         0.00000000       0.00000000       0.00000000          1
6
pbc=[F, F, F] list_num_par=6 frozen=false iter=249 energy=-0.09744737 Lattice="15.00000000 0.00000000 0.00000000 0.00000000 15.00000000 0.00000000 0.00000000 0.00000000 15.00000000" energy_frozen_part=0.00000000 Properties=species:S:1:pos:R:3:velocities:R:3:Z:I:1
H        13.05739976       3.02149177       3.61813093         0.00000000       0.00000000       0.00000000          1
H         2.97416581      13.30959474      14.40097526         0.00000000       0.00000000       0.00000000          1
H        10.17436657       2.30775963       6.78615561         0.00000000       0.00000000       0.00000000          1
H         6.34518979       3.18276765      10.73800144         0.00000000       0.00000000       0.00000000          1
H         1.98168380      12.64289294      11.53874627         0.00000000       0.00000000       0.00000000          1
H         9.80400116      11.05368590      13.51834302         0.00000000       0.00000000       0.00000000          1
6
pbc=[F, F, F] list_num_par=6 frozen=false iter=259 energy=-0.09965173 Lattice="15.00000000 0.00000000 0.00000000 0.00000000 15.00000000 0.00000000 0.00000000 0.00000000 15.00000000" energy_frozen_part=0.00000000 Properties=species:S:1:pos:R:3:velocities:R:3:Z:I:1
H         1.80431247      11.35586947      11.66817005         0.00000000       0.00000000       0.00000000          1
H         6.55134639       5.43713104       4.78603444         0.00000000       0.00000000       0.00000000          1
H         9.96896671      14.06597342       8.09514791         0.00000000       0.00000000       0.00000000          1
H         6.49104519      11.21137326       0.54026433         0.00000000       0.00000000       0.00000000          1
H        11.39734472       4.68167291       4.98250971         0.00000000       0.00000000       0.00000000          1
H         1.82185464      13.58089804       9.70586077         0.00000000       0.00000000       0.00000000          1
6
pbc=[F, F, F] list_num_par=6 frozen=false iter=269 energy=-0.10270658 Lattice="15.00000000 0.00000000 0.00000000 0.00000000 15.00000000 0.00000000 0.00000000 0.00000000 15.00000000" energy_frozen_part=0.00000000 Properties=species:S:1:pos:R:3:velocities:R:3:Z:I:1
H         8.86664763       8.06604964      10.79928162         0.00000000       0.00000000       0.00000000          1
H        11.69601666       8.31774248       9.24424121         0.00000000       0.00000000       0.00000000          1
H         1.45913400       5.70418944       2.38370979         0.00000000       0.00000000       0.00000000          1
H         6.75182501       2.45190237       9.21651989         0.00000000       0.00000000       0.00000000          1
H         4.17030912       1.73997960       5.37284786         0.00000000       0.00000000       0.00000000          1
H        11.59031471       4.88412151      12.40096961         0.00000000       0.00000000       0.00000000          1
6
pbc=[F, F, F] list_num_par=6 frozen=false iter=279 energy=-0.10384040 Lattice="15.00000000 0.00000000 0.00000000 0.00000000 15.00000000 0.00000000 0.00000000 0.00000000 15.00000000" energy_frozen_part=0.00000000 Properties=species:S:1:pos:R:3:velocities:R:3:Z:I:1
H         4.36736267      10.52869884      10.54491254         0.00000000       0.00000000       0.00000000          1
H         5.71187759      12.76344251      13.19215859         0.00000000       0.00000000       0.00000000          1
H        13.11355788      10.26721863       6.20915032         0.00000000       0.00000000       0.00000000          1
H        12.78059824       5.75177649       1.49233254         0.00000000       0.00000000       0.00000000          1
H        14.66443364       9.31506663       2.94896991         0.00000000       0.00000000       0.00000000          1
H         2.52331867       7.38129135      12.37296256         0.00000000       0.00000000       0.00000000          1
6
pbc=[F, F, F] list_num_par=6 frozen=false iter=289 energy=-0.10634339 Lattice="15.00000000 0.00000000 0.00000000 0.00000000 15.00000000 0.00000000 0.00000000 0.00000000 15.00000000" energy_frozen_part=0.00000000 Properties=species:S:1:pos:R:3:velocities:R:3:Z:I:1
H         4.17628338      12.34653052      10.02296097         0.00000000       0.00000000       0.00000000          1
H        11.21321566       3.74197109       6.05866208         0.00000000       0.00000000       0.00000000          1
H         6.67705316      14.32363289      10.80263913         0.00000000       0.00000000       0.00000000          1
H         3.13703049      13.39296126      13.56696736         0.00000000       0.00000000       0.00000000          1
H        14.69248438       4.57443949       2.41459979         0.00000000       0.00000000       0.00000000          1
H         2.06250705       3.18493786       2.53288965         0.00000000       0.00000000       0.00000000          1
6
pbc=[F, F, F] list_num_par=6 frozen=false iter=299 energy=-0.10773352 Lattice="15.00000000 0.00000000 0.00000000 0.00000000 15.00000000 0.00000000 0.00000000 0.00000000 15.00000000" energy_frozen_part=0.00000000 Properties=species:S:1:pos:R:3:velocities:R:3:Z:I:1
H         0.13543107       7.64869721       9.40253018         0.00000000       0.00000000       0.00000000          1
H         7.30233674       7.06099327       8.57072477         0.00000000       0.00000000       0.00000000          1
H        13.90130843       3.01710563       7.29360971         0.00000000       0.00000000       0.00000000          1
H         5.32471559       9.31853076       9.45756295         0.00000000       0.00000000       0.00000000          1
H         6.52209109       3.19966750       7.75755274         0.00000000       0.00000000       0.00000000          1
H        12.49701550       6.95948061       3.09870425         0.00000000       0.00000000       0.00000000          1
6
pbc=[F, F, F] list_num_par=6 frozen=false iter=309 energy=-0.11070567 Lattice="15.00000000 0.00000000 0.00000000 0.00000000 15.00000000 0.00000000 0.00000000 0.00000000 15.00000000" energy_frozen_part=0.00000000 Properties=species:S:1:pos:R:3:velocities:R:3:Z:I:1
H        11.24858433      12.42333728       3.96496029         0.00000000       0.00000000       0.00000000          1
H         5.91261580       8.18997618       7.76481978         0.00000000       0.00000000       0.00000000          1