6
pbc=[F, F, F] list_num_par=6 frozen=false iter=9 energy=26.04796536 Lattice="15.00000000 0.00000000 0.00000000 0.00000000 15.00000000 0.00000000 0.00000000 0.00000000 15.00000000" energy_frozen_part=0.00000000 Properties=species:S:1:pos:R:3:velocities:R:3:Z:I:1
H        10.03847753       0.89432156      12.04887254         0.00000000       0.00000000       0.00000000          1
H         9.85053866      12.32505845       2.86011361         0.00000000       0.00000000       0.00000000          1
H         1.07391342       9.89195327       1.11512511         0.00000000       0.00000000       0.00000000          1
H        11.22196258      10.33681161      14.68207461         0.00000000       0.00000000       0.00000000          1
H         2.76735115       0.43635859      11.29147804         0.00000000       0.00000000       0.00000000          1
H         8.33554603       0.92020363      12.43825444         0.00000000       0.00000000       0.00000000          1
6
pbc=[F, F, F] list_num_par=6 frozen=false iter=19 energy=2.03967481 Lattice="15.00000000 0.00000000 0.00000000 0.00000000 15.00000000 0.00000000 0.00000000 0.00000000 15.00000000" energy_frozen_part=0.00000000 Properties=species:S:1:pos:R:3:velocities:R:3:Z:I:1
H         5.02083207      12.53069582       3.32426902         0.00000000       0.00000000       0.00000000          1
H         8.24748922       8.51783036      12.39937728         0.00000000       0.00000000       0.00000000          1
H         2.45284531       5.84054948      13.27092177         0.00000000       0.00000000       0.00000000          1
H        12.82875241      11.25396572       0.46666353         0.00000000       0.00000000       0.00000000          1
H         2.89961799      14.36567781       0.91802444         0.00000000       0.00000000       0.00000000          1
H        11.78148208      12.13111999       2.06386638         0.00000000       0.00000000       0.00000000          1
6
pbc=[F, F, F] list_num_par=6 frozen=false iter=29 energy=0.06564223 Lattice="15.00000000 0.00000000 0.00000000 0.00000000 15.00000000 0.00000000 0.00000000 0.00000000 15.00000000" energy_frozen_part=0.00000000 Properties=species:S:1:pos:R:3:velocities:R:3:Z:I:1
H        11.50172580      13.49745583       8.91113285         0.00000000       0.00000000       0.00000000          1
H        12.15701066      12.06707826       3.49776552         0.00000000       0.00000000       0.00000000          1
H         4.76815548       1.96363816       6.78656921         0.00000000       0.00000000       0.00000000          1
H        14.98882784       4.04280549       1.05027002         0.00000000       0.00000000       0.00000000          1
H        10.92150208       2.42917100       2.62340992         0.00000000       0.00000000       0.00000000          1
H        13.73868199      12.74282169       8.32360238         0.00000000       0.00000000       0.00000000          1
6
pbc=[F, F, F] list_num_par=6 frozen=false iter=39 energy=-0.00333865 Lattice="15.00000000 0.00000000 0.00000000 0.00000000 15.00000000 0.00000000 0.00000000 0.00000000 15.00000000" energy_frozen_part=0.00000000 Properties=species:S:1:pos:R:3:velocities:R:3:Z:I:1
H         8.02576194      13.36595612       1.48208724         0.00000000       0.00000000       0.00000000          1
H         1.42320284      11.84548262       0.81622884         0.00000000       0.00000000       0.00000000          1
H         2.03680337       4.04684032       9.03581757         0.00000000       0.00000000       0.00000000          1
H         0.06111382       9.94782692       8.00980911         0.00000000       0.00000000       0.00000000          1
H         5.65098099       1.39313854       1.46969284         0.00000000       0.00000000       0.00000000          1
H         9.57773989       5.98941171       7.47462614         0.00000000       0.00000000       0.00000000          1
6
pbc=[F, F, F] list_num_par=6 frozen=false iter=49 energy=-0.00619126 Lattice="15.00000000 0.00000000 0.00000000 0.00000000 15.00000000 0.00000000 0.00000000 0.00000000 15.00000000" energy_frozen_part=0.00000000 Properties=species:S:1:pos:R:3:velocities:R:3:Z:I:1
H         3.61966944       8.36409499       1.07835647         0.00000000       0.00000000       0.00000000          1
H         5.78475462       0.70869813       0.77076379         0.00000000       0.00000000       0.00000000          1
H         3.03009483      14.70432973       0.75439339         0.00000000       0.00000000       0.00000000          1
H         4.68503695      10.92531945      11.53721178         0.00000000       0.00000000       0.00000000          1
H         9.67494582      12.84501593       1.69851487         0.00000000       0.00000000       0.00000000          1
H         9.17585033      13.00422619       8.61722893         0.00000000       0.00000000       0.00000000          1
6
pbc=[F, F, F] list_num_par=6 frozen=false iter=59 energy=-0.00800484 Lattice="15.00000000 0.00000000 0.00000000 0.00000000 15.00000000 0.00000000 0.00000000 0.00000000 15.00000000" energy_frozen_part=0.00000000 Properties=species:S:1:pos:R:3:velocities:R:3:Z:I:1
H        12.09492212       8.67331925       4.90041746         0.00000000       0.00000000       0.00000000          1
H         1.95490084       6.71252318      11.39257283         0.00000000       0.00000000       0.00000000          1
H        12.80245537      14.15593657       5.49745239         0.00000000       0.00000000       0.00000000          1
H         5.19835662       1.23275346       4.18650475         0.00000000       0.00000000       0.00000000          1
H         0.22976463      12.34215908      13.12265558         0.00000000       0.00000000       0.00000000          1
H         5.00413690       2.06605343      12.42590668         0.00000000       0.00000000       0.00000000          1
6
pbc=[F, F, F] list_num_par=6 frozen=false iter=69 energy=-0.01025468 Lattice="15.00000000 0.00000000 0.00000000 0.00000000 15.00000000 0.00000000 0.00000000 0.00000000 15.00000000" energy_frozen_part=0.00000000 Properties=species:S:1:pos:R:3:velocities:R:3:Z:I:1
H         6.90859370       9.92242633       9.71571251         0.00000000       0.00000000       0.00000000          1
H         8.57071712       5.99156657       2.53590069         0.00000000       0.00000000       0.00000000          1
H         8.31728460      14.42920798       4.19367082         0.00000000       0.00000000       0.00000000          1
H         2.86388902       5.38918846       6.69848057         0.00000000       0.00000000       0.00000000          1
H         1.98247847      13.30908021       9.54462629         0.00000000       0.00000000       0.00000000          1
H         0.91741961       0.68010351       6.70625352         0.00000000       0.00000000       0.00000000          1
6
pbc=[F, F, F] list_num_par=6 frozen=false iter=79 energy=-0.01385638 Lattice="15.00000000 0.00000000 0.00000000 0.00000000 15.00000000 0.00000000 0.00000000 0.00000000 15.00000000" energy_frozen_part=0.00000000 Properties=species:S:1:pos:R:3:velocities:R:3:Z:I:1
H         8.15073178       5.45060949       0.70210312         0.00000000       0.00000000       0.00000000          1
H        12.34365210      14.53325147      12.82348567         0.00000000       0.00000000       0.00000000          1
H         8.28595407      14.29034794      10.88734566         0.00000000       0.00000000       0.00000000          1
H         5.99687788      11.67108285       3.93727464         0.00000000       0.00000000       0.00000000          1
H         0.42907733       4.41991926       0.27833963         0.00000000       0.00000000       0.00000000          1
H         2.50003463       1.54647764       5.72297821         0.00000000       0.00000000       0.00000000          1
6
pbc=[F, F, F] list_num_par=6 frozen=false iter=89 energy=-0.01988580 Lattice="15.00000000 0.00000000 0.00000000 0.00000000 15.00000000 0.00000000 0.00000000 0.00000000 15.00000000" energy_frozen_part=0.00000000 Properties=species:S:1:pos:R:3:velocities:R:3:Z:I:1
H        13.42205286      14.21385037      10.55603637         0.00000000       0.00000000       0.00000000          1
H         1.21491661      14.01727572      11.06932620         0.00000000       0.00000000       0.00000000          1
H         5.29011557       9.31476063       5.51009082         0.00000000       0.00000000       0.00000000          1
H         5.17128923       0.45675124       8.91958858         0.00000000       0.00000000       0.00000000          1
H        10.26007730      12.24069076      13.05086459         0.00000000       0.00000000       0.00000000          1
H         8.51741595       6.31066474       7.60740210         0.00000000       0.00000000       0.00000000          1
6
pbc=[F, F, F] list_num_par=6 frozen=false iter=99 energy=-0.02186564 Lattice="15.00000000 0.00000000 0.00000000 0.00000000 15.00000000 0.00000000 0.00000000 0.00000000 15.00000000" energy_frozen_part=0.00000000 Properties=species:S:1:pos:R:3:velocities:R:3:Z:I:1
H         6.63605425       4.95669311       3.91594038         0.00000000       0.00000000       0.00000000          1
H        13.79270856       9.77144039       7.57687319         0.00000000       0.00000000       0.00000000          1
H         4.74462357       8.92168499       1.32199407         0.00000000       0.00000000       0.00000000          1
H         2.28228010      12.16695063       2.60081431         0.00000000       0.00000000       0.00000000          1
H        13.03934811       1.40909192      10.59870774         0.00000000       0.00000000       0.00000000          1
H         0.56722184       2.95690082       6.71751202         0.00000000       0.00000000       0.00000000          1
6
pbc=[F, F, F] list_num_par=6 frozen=false iter=109 energy=-0.02670348 Lattice="15.00000000 0.00000000 0.00000000 0.00000000 15.00000000 0.00000000 0.00000000 0.00000000 15.00000000" energy_frozen_part=0.00000000 Properties=species:S:1:pos:R:3:velocities:R:3:Z:I:1
H        11.43934325       2.06232270      13.20791130         0.00000000       0.00000000       0.00000000          1
H         8.43959596       0.03455355      11.04796563         0.00000000       0.00000000       0.00000000          1
H        14.11336194       6.51710497      11.74579324         0.00000000       0.00000000       0.00000000          1
H         1.71362501      13.53410287      14.09855355         0.00000000       0.00000000       0.00000000          1
H        12.80505099       4.56041360       4.56281051         0.00000000       0.00000000       0.00000000          1
H         7.57667619       5.89311901      13.68223954         0.00000000       0.00000000       0.00000000          1
6
pbc=[F, F, F] list_num_par=6 frozen=false iter=119 energy=-0.03282144 Lattice="15.00000000 0.00000000 0.00000000 0.00000000 15.00000000 0.00000000 0.00000000 0.00000000 15.00000000" energy_frozen_part=0.00000000 Properties=species:S:1:pos:R:3:velocities:R:3:Z:I:1
H         6.01724466      14.66718477       8.25894437         0.00000000       0.00000000       0.00000000          1
H        10.13860487       2.21677239       3.12013082         0.00000000       0.00000000       0.00000000          1
H         3.17066359       3.50698392       4.85525664         0.00000000       0.00000000       0.00000000          1
H         3.27912666      13.07138942      11.49105653         0.00000000       0.00000000       0.00000000          1
H         5.89560178       7.86777721      10.29685263         0.00000000       0.00000000       0.00000000          1
H         7.06390303       5.88250433       4.73085934         0.00000000       0.00000000       0.00000000          1
6
pbc=[F, F, F] list_num_par=6 frozen=false iter=129 energy=-0.03769020 Lattice="15.00000000 0.00000000 0.00000000 0.00000000 15.00000000 0.00000000 0.00000000 0.00000000 15.00000000" energy_frozen_part=0.00000000 Properties=species:S:1:pos:R:3:velocities:R:3:Z:I:1
H         8.34488223       8.30883144       7.05812287         0.00000000       0.00000000       0.00000000          1
H         2.42402804       0.01623137       6.75864637         0.00000000       0.00000000       0.00000000          1
H         8.06087023       6.97255759       3.49643194         0.00000000       0.00000000       0.00000000          1
H         4.16853603      10.81382657       2.05557985         0.00000000       0.00000000       0.00000000          1
H         7.49317880       0.67212218       4.51395332         0.00000000       0.00000000       0.00000000          1
H         4.78684440       6.29469462      13.86942615         0.00000000       0.00000000       0.00000000          1
6
pbc=[F, F, F] list_num_par=6 frozen=false iter=139 energy=-0.04146855 Lattice="15.00000000 0.00000000 0.00000000 0.00000000 15.00000000 0.00000000 0.00000000 0.00000000 15.00000000" energy_frozen_part=0.00000000 Properties=species:S:1:pos:R:3:velocities:R:3:Z:I:1
H         6.86151247       4.11363862      13.80986319         0.00000000       0.00000000       0.00000000          1
H        14.67820592       3.86950685      13.53859474         0.00000000       0.00000000       0.00000000          1
H         4.63067003      12.26773896      14.17476687         0.00000000       0.00000000       0.00000000          1
H         0.06224104       8.48819715       4.39851586         0.00000000       0.00000000       0.00000000          1
H         7.27032567       1.50712732       9.59730105         0.00000000       0.00000000       0.00000000          1
H         8.61397040       0.51145229      13.74955393         0.00000000       0.00000000       0.00000000          1
6
pbc=[F, F, F] list_num_par=6 frozen=false iter=149 energy=-0.04584594 Lattice="15.00000000 0.00000000 0.00000000 0.00000000 15.00000000 0.00000000 0.00000000 0.00000000 15.00000000" energy_frozen_part=0.00000000 Properties=species:S:1:pos:R:3:velocities:R:3:Z:I:1
H        11.08834420      12.56066982      13.60600380         0.00000000       0.00000000       0.00000000          1
H         1.84282049       1.66258536      11.41233338         0.00000000       0.00000000       0.00000000          1
H         1.26147689       2.46280301       0.88523316         0.00000000       0.00000000       0.00000000          1
H         0.99970026       0.68537906      14.69231960         0.00000000       0.00000000       0.00000000          1
H         8.25957209      11.50354154       6.61494865         0.00000000       0.00000000       0.00000000          1
H         8.27507316       4.80622648      10.78567967         0.00000000       0.00000000       0.00000000          1
6
pbc=[F, F, F] list_num_par=6 frozen=false iter=159 energy=-0.04965418 Lattice="15.00000000 0.00000000 0.00000000 0.00000000 15.00000000 0.00000000 0.00000000 0.00000000 15.00000000" energy_frozen_part=0.00000000 Properties=species:S:1:pos:R:3:velocities:R:3:Z:I:1
H        10.51558667       5.50166250       7.91530485         0.00000000       0.00000000       0.00000000          1
H        10.85667852       9.36015872       5.28257569         0.00000000       0.00000000       0.00000000          1
H        11.59540130      10.36447567       9.44405309         0.00000000       0.00000000       0.00000000          1
H         3.94793050      14.14969483      11.31742339         0.00000000       0.00000000       0.00000000          1
H         8.11966576       7.20740843       2.93630412         0.00000000       0.00000000       0.00000000          1
H         5.14610873       8.79361763      13.88689259         0.00000000       0.00000000       0.00000000          1
6
pbc=[F, F, F] list_num_par=6 frozen=false iter=169 energy=-0.05532287 Lattice="15.00000000 0.00000000 0.00000000 0.00000000 15.00000000 0.00000000 0.00000000 0.00000000 15.00000000" energy_frozen_part=0.00000000 Properties=species:S:1:pos:R:3:velocities:R:3:Z:I:1
H         6.33993516      13.29508223      14.72352537         0.00000000       0.00000000       0.00000000          1
H         8.86332178      11.89340684       2.67983071         0.00000000       0.00000000       0.00000000          1
H         7.71115299       6.01986774       6.56802903         0.00000000       0.00000000       0.00000000          1
H         4.27897249       5.36603977       4.47260790         0.00000000       0.00000000       0.00000000          1
H         4.63127398       7.76888256       8.38544962         0.00000000       0.00000000       0.00000000          1
H         8.63634967       0.03445378       9.62485020         0.00000000       0.00000000       0.00000000          1
6
pbc=[F, F, F] list_num_par=6 frozen=false iter=179 energy=-0.06333324 Lattice="15.00000000 0.00000000 0.00000000 0.00000000 15.00000000 0.00000000 0.00000000 0.00000000 15.00000000" energy_frozen_part=0.00000000 Properties=species:S:1:pos:R:3:velocities:R:3:Z:I:1
H         8.30383285      12.91952475       1.36528735         0.00000000       0.00000000       0.00000000          1
H        14.79012325      11.55667346       2.45236311         0.00000000       0.00000000       0.00000000          1
H         6.88446917      13.50145830      14.48998840         0.00000000       0.00000000       0.00000000          1
H        13.47087559       6.12358587       2.75241189         0.00000000       0.00000000       0.00000000          1
H         5.75958584       0.68020202      11.60305025         0.00000000       0.00000000       0.00000000          1
H        11.16046220      10.33761170       2.33490475         0.00000000       0.00000000       0.00000000          1
6
pbc=[F, F, F] list_num_par=6 frozen=false iter=189 energy=-0.06822567 Lattice="15.00000000 0.00000000 0.00000000 0.00000000 15.00000000 0.00000000 0.00000000 0.00000000 15.00000000" energy_frozen_part=0.00000000 Properties=species:S:1:pos:R:3:velocities:R:3:Z:I:1
H         0.13408273       8.58114040       1.06569562         0.00000000       0.00000000       0.00000000          1
H        10.30724654      13.44593176      14.73669718         0.00000000       0.00000000       0.00000000          1
H         7.60173209       3.79000014       6.82340665         0.00000000       0.00000000       0.00000000          1
H         8.87534279       7.85370076      12.97617465         0.00000000       0.00000000       0.00000000          1
H         5.10308225       6.77116915       8.90420642         0.00000000       0.00000000       0.00000000          1
H         4.79398874       1.71808829       6.84249166         0.00000000       0.00000000       0.00000000          1
6
pbc=[F, F, F] list_num_par=6 frozen=false iter=199 energy=-0.07464135 Lattice="15.00000000 0.00000000 0.00000000 0.00000000 15.00000000 0.00000000 0.00000000 0.00000000 15.00000000" energy_frozen_part=0.00000000 Properties=species:S:1:pos:R:3:velocities:R:3:Z:I:1
H         9.22470979       7.69151002      12.08188224         0.00000000       0.00000000       0.00000000          1
H        14.58086246       5.95166671      11.73739229         0.00000000       0.00000000       0.00000000          1
H        11.93567351       4.18757040       7.09595767         0.00000000       0.00000000       0.00000000          1
H        14.99721287       6.12189827      14.97257825         0.00000000       0.00000000       0.00000000          1
H         8.01173231       6.30979449       3.18109732         0.00000000       0.00000000       0.00000000          1
H         2.06448419      11.38907607       5.27860743         0.00000000       0.00000000       0.00000000          1
6
pbc=[F, F, F] list_num_par=6 frozen=false iter=209 energy=-0.08077548 Lattice="15.00000000 0.00000000 0.00000000 0.00000000 15.00000000 0.00000000 0.00000000 0.00000000 15.00000000" energy_frozen_part=0.00000000 Properties=species:S:1:pos:R:3:velocities:R:3:Z:I:1
H        10.29715792       3.30654785       1.79271971         0.00000000       0.00000000       0.00000000          1
H         8.57069956      12.92878364      10.93253314         0.00000000       0.00000000       0.00000000          1
H         7.25886593       0.52686309      10.59789689         0.00000000       0.00000000       0.00000000          1
H         2.73465292       4.15238186      13.24851551         0.00000000       0.00000000       0.00000000          1
H         8.07253005      12.70744297       5.96891806         0.00000000       0.00000000       0.00000000          1
H        12.52540538       1.52125202       3.16377047         0.00000000       0.00000000       0.00000000          1
6
pbc=[F, F, F] list_num_par=6 frozen=false iter=219 energy=-0.08286631 Lattice="15.00000000 0.00000000 0.00000000 0.00000000 15.00000000 0.00000000 0.00000000 0.00000000 15.00000000" energy_frozen_part=0.00000000 Properties=species:S:1:pos:R:3:velocities:R:3:Z:I:1
H         6.64854222       7.76388779       5.50421802         0.00000000       0.00000000       0.00000000          1
H        11.55914341       7.48823302       5.71318195         0.00000000       0.00000000       0.00000000          1
H         2.24336334      10.31217467       0.76624312         0.00000000       0.00000000       0.00000000          1
H         4.29106869      12.96711738       1.07175407         0.00000000       0.00000000       0.00000000          1
H         9.08245976       9.82420396       2.13693591         0.00000000       0.00000000       0.00000000          1
H         0.65831509       7.97790320      12.86368602         0.00000000       0.00000000       0.00000000          1
6
pbc=[F, F, F] list_num_par=6 frozen=false iter=229 energy=-0.08614969 Lattice="15.00000000 0.00000000 0.00000000 0.00000000 15.00000000 0.00000000 0.00000000 0.00000000 15.00000000" energy_frozen_part=0.00000000 Properties=species:S:1:pos:R:3:velocities:R:3:Z:I:1
H        10.18806706       2.97925839       1.04153663         0.00000000       0.00000000       0.00000000          1
H         3.90736328       4.04859321       9.30505233         0.00000000       0.00000000       0.00000000          1
H        11.56599436      12.04385793      10.47969449         0.00000000       0.00000000       0.00000000          1
H         7.95122292       8.39703374      10.31401965         0.00000000       0.00000000       0.00000000          1
H         2.50044363       8.30375876       5.55038624         0.00000000       0.00000000       0.00000000          1
H         6.58641739       4.39042887       7.54655462         0.00000000       0.00000000       0.00000000          1
6
pbc=[F, F, F] list_num_par=6 frozen=false iter=239 energy=-0.09064345 Lattice="15.00000000 0.00000000 0.00000000 0.00000000 15.00000000 0.00000000 0.00000000 0.00000000 15.00000000" energy_frozen_part=0.00000000 Properties=species:S:1:pos:R:3:velocities:R:3:Z:I:1
H         7.53815248       4.60249959       8.30983660         0.00000000       0.00000000       0.00000000          1
H         4.85734825       2.50292181       3.89421848         0.00000000       0.00000000       0.00000000          1
H         4.38562878       2.61644359      14.36363313         0.00000000       0.00000000       0.00000000          1
H         2.17043664       1.10865870       3.61011049         0.00000000       0.00000000       0.00000000          1
H        12.62130433      14.49741344       5.40393787         0.00000000       0.00000000       0.00000000          1
H        13.49175144       9.20659866       1.81121542         0.00000000       0.00000000       0.00000000          1
6
pbc=[F, F, F] list_num_par=6 frozen=false iter=249 energy=-0.09678992 Lattice="15.00000000 0.00000000 0.00000000 0.00000000 15.00000000 0.00000000 0.00000000 0.00000000 15.00000000" energy_frozen_part=0.00000000 Properties=species:S:1:pos:R:3:velocities:R:3:Z:I:1
H        10.97895045       7.92142817       8.58956791         0.00000000       0.00000000       0.00000000          1
H         3.99110584       9.42987219       9.56033040         0.00000000       0.00000000       0.00000000          1
H         7.96588501       9.38157240       8.83232047         0.00000000       0.00000000       0.00000000          1
H         5.98596037      10.53781216       4.51440126         0.00000000       0.00000000       0.00000000          1
H        10.97033620      13.63485949       3.69422860         0.00000000       0.00000000       0.00000000          1
H        13.61048469       5.39038767       4.70554066         0.00000000       0.00000000       0.00000000          1
6
pbc=[F, F, F] list_num_par=6 frozen=false iter=259 energy=-0.09970973 Lattice="15.00000000 0.00000000 0.00000000 0.00000000 15.00000000 0.00000000 0.00000000 0.00000000 15.00000000" energy_frozen_part=0.00000000 Properties=species:S:1:pos:R:3:velocities:R:3:Z:I:1
H        10.53797539       4.90351552       5.63436498         0.00000000       0.00000000       0.00000000          1
H         0.97206008      14.03025109       6.35492260         0.00000000       0.00000000       0.00000000          1
H        12.60723976       3.37002843       9.40605168         0.00000000       0.00000000       0.00000000          1
H         6.34201498       5.24041644       5.03259963         0.00000000       0.00000000       0.00000000          1
H         3.42923879       0.90506710      14.77314602         0.00000000       0.00000000       0.00000000          1
H        12.68048402       0.31990758       8.45976333         0.00000000       0.00000000       0.00000000          1
6
pbc=[F, F, F] list_num_par=6 frozen=false iter=269 energy=-0.10118176 Lattice="15.00000000 0.00000000 0.00000000 0.00000000 15.00000000 0.00000000 0.00000000 0.00000000 15.00000000" energy_frozen_part=0.00000000 Properties=species:S:1:pos:R:3:velocities:R:3:Z:I:1
H         8.11695376       6.20660108       8.03128704         0.00000000       0.00000000       0.00000000          1
H         5.20163995       5.21278908      12.29901233         0.00000000       0.00000000       0.00000000          1
H        11.67348928       4.43621078       3.78469910         0.00000000       0.00000000       0.00000000          1
H         9.98045578      13.15563557       0.74363280         0.00000000       0.00000000       0.00000000          1
H         3.72667370       5.19085365      14.51852112         0.00000000       0.00000000       0.00000000          1
H         0.28506510       8.64688279      12.99441697         0.00000000       0.00000000       0.00000000          1
6
pbc=[F, F, F] list_num_par=6 frozen=false iter=279 energy=-0.10356607 Lattice="15.00000000 0.00000000 0.00000000 0.00000000 15.00000000 0.00000000 0.00000000 0.00000000 15.00000000" energy_frozen_part=0.00000000 Properties=species:S:1:pos:R:3:velocities:R:3:Z:I:1
H        10.34113894       8.22192280      13.95409566         0.00000000       0.00000000       0.00000000          1
H        14.98701728      10.28643264      11.00940018         0.00000000       0.00000000       0.00000000          1
H        13.32724317       4.88003170       5.14331240         0.00000000       0.00000000       0.00000000          1
H        10.68463215       5.72751715      12.78403213         0.00000000       0.00000000       0.00000000          1
H         3.42425928       5.23270423       2.95978552         0.00000000       0.00000000       0.00000000          1
H         2.16641155      13.55173102       2.46011955         0.00000000       0.00000000       0.00000000          1
6
pbc=[F, F, F] list_num_par=6 frozen=false iter=289 energy=-0.10490829 Lattice="15.00000000 0.00000000 0.00000000 0.00000000 15.00000000 0.00000000 0.00000000 0.00000000 15.00000000" energy_frozen_part=0.00000000 Properties=species:S:1:pos:R:3:velocities:R:3:Z:I:1
H         7.63776071      11.95852711       8.41196773         0.00000000       0.00000000       0.00000000          1
H        12.34610213       2.15729235       0.02114361         0.00000000       0.00000000       0.00000000          1
H         9.82539853       6.78268654       9.68639575         0.00000000       0.00000000       0.00000000          1
H        10.37965245       6.24537315       6.17040981         0.00000000       0.00000000       0.00000000          1
H         6.75056608      14.66578851       6.69252197         0.00000000       0.00000000       0.00000000          1
H         3.83511464       9.56464864      12.80175931         0.00000000       0.00000000       0.00000000          1
6
pbc=[F, F, F] list_num_par=6 frozen=false iter=299 energy=-0.10848480 Lattice="15.00000000 0.00000000 0.00000000 0.00000000 15.00000000 0.00000000 0.00000000 0.00000000 15.00000000" energy_frozen_part=0.00000000 Properties=species:S:1:pos:R:3:velocities:R:3:Z:I:1
H         2.50328256       4.34622866       8.38492016         0.00000000       0.00000000       0.00000000          1
H         4.92964583       4.09774071       4.08439974         0.00000000       0.00000000       0.00000000          1
H        10.96493857       6.89419855       6.35623605         0.00000000       0.00000000       0.00000000          1
H         0.23615699      11.23448345      13.92244503         0.00000000       0.00000000       0.00000000          1
H         2.49690170       3.06637563       4.31532573         0.00000000       0.00000000       0.00000000          1
H         9.24747352       5.33032735      12.15078619         0.00000000       0.00000000       0.00000000          1
6
pbc=[F, F, F] list_num_par=6 frozen=false iter=309 energy=-0.11042637 Lattice="15.00000000 0.00000000 0.00000000 0.00000000 15.00000000 0.00000000 0.00000000 0.00000000 15.00000000" energy_frozen_part=0.00000000 Properties=species:S:1:pos:R:3:velocities:R:3:Z:I:1
H        10.51886046      10.02131098       0.67418882         0.00000000       0.00000000       0.00000000          1
H         1.82759833      13.00680362      13.69616894         0.00000000       0.00000000       0.00000000          1