6
pbc=[F, F, F] list_num_par=6 frozen=false iter=9 energy=35.17515846 Lattice="15.00000000 0.00000000 0.00000000 0.00000000 15.00000000 0.00000000 0.00000000 0.00000000 15.00000000" energy_frozen_part=0.00000000 Properties=species:S:1:pos:R:3:velocities:R:3:Z:I:1
H         9.99907029      10.80781928      13.46639447         0.00000000       0.00000000       0.00000000          1
H         9.68528609      13.28026229       9.00748573         0.00000000       0.00000000       0.00000000          1
H        11.90281847      11.79442939      12.44240547         0.00000000       0.00000000       0.00000000          1
H        14.84717847       8.52098414       8.65370288         0.00000000       0.00000000       0.00000000          1
H        13.32669802       9.88610907      11.24807322         0.00000000       0.00000000       0.00000000          1
H        12.70981918      10.25231585       9.70062212         0.00000000       0.00000000       0.00000000          1
6
pbc=[F, F, F] list_num_par=6 frozen=false iter=19 energy=-0.00102630 Lattice="15.00000000 0.00000000 0.00000000 0.00000000 15.00000000 0.00000000 0.00000000 0.00000000 15.00000000" energy_frozen_part=0.00000000 Properties=species:S:1:pos:R:3:velocities:R:3:Z:I:1
H        11.75392982      10.46140086      14.99263290         0.00000000       0.00000000       0.00000000          1
H         9.87256350      13.67025496       0.27559453         0.00000000       0.00000000       0.00000000          1
H         1.56138645      14.49967627       8.99180380         0.00000000       0.00000000       0.00000000          1
H         3.71045723       2.91282114       1.54936107         0.00000000       0.00000000       0.00000000          1
H         3.52595493       3.73462922       8.15890637         0.00000000       0.00000000       0.00000000          1
H        13.13525999       1.83675688       8.91027121         0.00000000       0.00000000       0.00000000          1
6
pbc=[F, F, F] list_num_par=6 frozen=false iter=29 energy=-0.00351470 Lattice="15.00000000 0.00000000 0.00000000 0.00000000 15.00000000 0.00000000 0.00000000 0.00000000 15.00000000" energy_frozen_part=0.00000000 Properties=species:S:1:pos:R:3:velocities:R:3:Z:I:1
H        11.46077296       7.03006509       8.01266916         0.00000000       0.00000000       0.00000000          1
H         7.34824332       4.10211070      14.67621981         0.00000000       0.00000000       0.00000000          1
H         0.90449194       3.89357614      13.15609974         0.00000000       0.00000000       0.00000000          1
H         6.09411075       1.11462396       7.68088262         0.00000000       0.00000000       0.00000000          1
H        13.49697064       0.52215681      10.78417416         0.00000000       0.00000000       0.00000000          1
H         7.76816766      13.36597290      10.60988530         0.00000000       0.00000000       0.00000000          1
6
pbc=[F, F, F] list_num_par=6 frozen=false iter=39 energy=-0.00531122 Lattice="15.00000000 0.00000000 0.00000000 0.00000000 15.00000000 0.00000000 0.00000000 0.00000000 15.00000000" energy_frozen_part=0.00000000 Properties=species:S:1:pos:R:3:velocities:R:3:Z:I:1
H        14.97054541       6.57317115       3.27355458         0.00000000       0.00000000       0.00000000          1
H         3.18313298      11.41166821       4.98398776         0.00000000       0.00000000       0.00000000          1
H         0.40432101       6.69708819       1.83933254         0.00000000       0.00000000       0.00000000          1
H        11.16755515      12.55696082       6.47911494         0.00000000       0.00000000       0.00000000          1
H         6.78376915       6.53565476       3.15598690         0.00000000       0.00000000       0.00000000          1
H        14.85950137      11.89375728      13.61339974         0.00000000       0.00000000       0.00000000          1
6
pbc=[F, F, F] list_num_par=6 frozen=false iter=49 energy=-0.00834863 Lattice="15.00000000 0.00000000 0.00000000 0.00000000 15.00000000 0.00000000 0.00000000 0.00000000 15.00000000" energy_frozen_part=0.00000000 Properties=species:S:1:pos:R:3:velocities:R:3:Z:I:1
H         6.29158989      10.97503677       6.55975215         0.00000000       0.00000000       0.00000000          1
H        10.66107812       1.78751490       7.77876234         0.00000000       0.00000000       0.00000000          1
H         0.31835190       4.49999095       7.97738619         0.00000000       0.00000000       0.00000000          1
H         6.15638885       9.03683131      11.53097375         0.00000000       0.00000000       0.00000000          1
H        13.01301376       1.43652420       2.29096906         0.00000000       0.00000000       0.00000000          1
H         7.97111884      12.60168065       0.97373710         0.00000000       0.00000000       0.00000000          1
6
pbc=[F, F, F] list_num_par=6 frozen=false iter=59 energy=-0.01006673 Lattice="15.00000000 0.00000000 0.00000000 0.00000000 15.00000000 0.00000000 0.00000000 0.00000000 15.00000000" energy_frozen_part=0.00000000 Properties=species:S:1:pos:R:3:velocities:R:3:Z:I:1
H         1.96721758       9.24710449      11.90719929         0.00000000       0.00000000       0.00000000          1
H        12.89350354       4.73281573      12.86854307         0.00000000       0.00000000       0.00000000          1
H        13.18399886       1.42034661       4.84753116         0.00000000       0.00000000       0.00000000          1
H         7.98359439      10.13532773       5.50278351         0.00000000       0.00000000       0.00000000          1
H         2.50542574       1.62223887       9.17629175         0.00000000       0.00000000       0.00000000          1
H         9.86209677       4.47454705       9.01580553         0.00000000       0.00000000       0.00000000          1
6
pbc=[F, F, F] list_num_par=6 frozen=false iter=69 energy=-0.01270180 Lattice="15.00000000 0.00000000 0.00000000 0.00000000 15.00000000 0.00000000 0.00000000 0.00000000 15.00000000" energy_frozen_part=0.00000000 Properties=species:S:1:pos:R:3:velocities:R:3:Z:I:1
H         6.68163521       1.04698736      12.89184922         0.00000000       0.00000000       0.00000000          1
H         9.35513264       5.59012424      12.64200602         0.00000000       0.00000000       0.00000000          1
H         3.57351368       6.02284560       7.39174576         0.00000000       0.00000000       0.00000000          1
H         2.23495641       3.38461741      13.40361326         0.00000000       0.00000000       0.00000000          1
H         3.24834574       3.79949125       0.05782376         0.00000000       0.00000000       0.00000000          1
H        11.08207062       9.40850588       4.68544998         0.00000000       0.00000000       0.00000000          1
6
pbc=[F, F, F] list_num_par=6 frozen=false iter=79 energy=-0.01623738 Lattice="15.00000000 0.00000000 0.00000000 0.00000000 15.00000000 0.00000000 0.00000000 0.00000000 15.00000000" energy_frozen_part=0.00000000 Properties=species:S:1:pos:R:3:velocities:R:3:Z:I:1
H         1.12566196      11.74453521       8.71442470         0.00000000       0.00000000       0.00000000          1
H        14.27414842       0.46733177      10.47804754         0.00000000       0.00000000       0.00000000          1
H        14.51363903       0.81992322       0.25080299         0.00000000       0.00000000       0.00000000          1
H         3.79753803      14.84334015       2.84940392         0.00000000       0.00000000       0.00000000          1
H         2.66219704      11.23342516       0.73478911         0.00000000       0.00000000       0.00000000          1
H        11.48383624       4.98524060       6.50093258         0.00000000       0.00000000       0.00000000          1
6
pbc=[F, F, F] list_num_par=6 frozen=false iter=89 energy=-0.01942959 Lattice="15.00000000 0.00000000 0.00000000 0.00000000 15.00000000 0.00000000 0.00000000 0.00000000 15.00000000" energy_frozen_part=0.00000000 Properties=species:S:1:pos:R:3:velocities:R:3:Z:I:1
H         4.86101780      12.98417938       4.74649114         0.00000000       0.00000000       0.00000000          1
H        10.95764829       2.08220880      13.23194593         0.00000000       0.00000000       0.00000000          1
H         0.49121259       4.44584620       9.75087286         0.00000000       0.00000000       0.00000000          1
H         1.38859560       2.94354235       4.46079740         0.00000000       0.00000000       0.00000000          1
H         6.69974543       4.11795728      13.54090830         0.00000000       0.00000000       0.00000000          1
H         0.02070058       2.49853685      14.26827415         0.00000000       0.00000000       0.00000000          1
6
pbc=[F, F, F] list_num_par=6 frozen=false iter=99 energy=-0.02262099 Lattice="15.00000000 0.00000000 0.00000000 0.00000000 15.00000000 0.00000000 0.00000000 0.00000000 15.00000000" energy_frozen_part=0.00000000 Properties=species:S:1:pos:R:3:velocities:R:3:Z:I:1
H         7.38070376       8.44919434       5.51066665         0.00000000       0.00000000       0.00000000          1
H        12.61354301       6.07049954       2.23126670         0.00000000       0.00000000       0.00000000          1
H        10.13919794       3.44884459       4.45221677         0.00000000       0.00000000       0.00000000          1
H         2.98777310       4.72510296      11.87780243         0.00000000       0.00000000       0.00000000          1
H         7.70190821       6.71841667      14.73077977         0.00000000       0.00000000       0.00000000          1
H        14.01720492      13.43046086       1.57510578         0.00000000       0.00000000       0.00000000          1
6
pbc=[F, F, F] list_num_par=6 frozen=false iter=109 energy=-0.02696545 Lattice="15.00000000 0.00000000 0.00000000 0.00000000 15.00000000 0.00000000 0.00000000 0.00000000 15.00000000" energy_frozen_part=0.00000000 Properties=species:S:1:pos:R:3:velocities:R:3:Z:I:1
H        11.88511763       8.57333031       1.03240151         0.00000000       0.00000000       0.00000000          1
H         0.99902862       0.22871372       1.79738372         0.00000000       0.00000000       0.00000000          1
H         9.29162837       5.80024935       2.90175561         0.00000000       0.00000000       0.00000000          1
H         2.68545027       3.14028846      10.49623640         0.00000000       0.00000000       0.00000000          1
H         3.93028632      11.56238823       0.71327262         0.00000000       0.00000000       0.00000000          1
H         8.11954918       9.23286438       5.98394413         0.00000000       0.00000000       0.00000000          1
6
pbc=[F, F, F] list_num_par=6 frozen=false iter=119 energy=-0.03033672 Lattice="15.00000000 0.00000000 0.00000000 0.00000000 15.00000000 0.00000000 0.00000000 0.00000000 15.00000000" energy_frozen_part=0.00000000 Properties=species:S:1:pos:R:3:velocities:R:3:Z:I:1
H        11.83404732      14.54638409      10.53761489         0.00000000       0.00000000       0.00000000          1
H         4.36835927      14.55299722      11.95839722         0.00000000       0.00000000       0.00000000          1
H        10.75030799      10.71728788       9.58845398         0.00000000       0.00000000       0.00000000          1
H        11.21364181       6.47153373      11.70645102         0.00000000       0.00000000       0.00000000          1
H         0.98137707       6.46204985      12.39958487         0.00000000       0.00000000       0.00000000          1
H         5.71843348       5.51856047       7.06708174         0.00000000       0.00000000       0.00000000          1
6
pbc=[F, F, F] list_num_par=6 frozen=false iter=129 energy=-0.03747934 Lattice="15.00000000 0.00000000 0.00000000 0.00000000 15.00000000 0.00000000 0.00000000 0.00000000 15.00000000" energy_frozen_part=0.00000000 Properties=species:S:1:pos:R:3:velocities:R:3:Z:I:1
H         8.57223142      13.98881494      14.73755249         0.00000000       0.00000000       0.00000000          1
H         6.01635528       5.47466049       3.85279185         0.00000000       0.00000000       0.00000000          1
H        10.09845490       5.00231789       4.01130449         0.00000000       0.00000000       0.00000000          1
H         1.42818862      12.06478244       8.24940306         0.00000000       0.00000000       0.00000000          1
H         9.17956710       9.77700242      14.70076377         0.00000000       0.00000000       0.00000000          1
H        11.14543613       5.35060515      10.35220004         0.00000000       0.00000000       0.00000000          1
6
pbc=[F, F, F] list_num_par=6 frozen=false iter=139 energy=-0.04203464 Lattice="15.00000000 0.00000000 0.00000000 0.00000000 15.00000000 0.00000000 0.00000000 0.00000000 15.00000000" energy_frozen_part=0.00000000 Properties=species:S:1:pos:R:3:velocities:R:3:Z:I:1
H         2.37535110       8.40293974      12.93929084         0.00000000       0.00000000       0.00000000          1
H        12.34379049      13.58141003      12.88168088         0.00000000       0.00000000       0.00000000          1
H         8.57972328       8.50307411      10.45972119         0.00000000       0.00000000       0.00000000          1
H        11.03605336       4.04250150       0.04664218         0.00000000       0.00000000       0.00000000          1
H         2.21742738      10.78360751       5.11040022         0.00000000       0.00000000       0.00000000          1
H         3.68910674      11.22812982       8.48372666         0.00000000       0.00000000       0.00000000          1
6
pbc=[F, F, F] list_num_par=6 frozen=false iter=149 energy=-0.04649877 Lattice="15.00000000 0.00000000 0.00000000 0.00000000 15.00000000 0.00000000 0.00000000 0.00000000 15.00000000" energy_frozen_part=0.00000000 Properties=species:S:1:pos:R:3:velocities:R:3:Z:I:1
H         8.33772381       2.43832063      13.33544888         0.00000000       0.00000000       0.00000000          1
H         8.98777699       3.08465483       6.40737890         0.00000000       0.00000000       0.00000000          1
H         5.03253080      14.62604459       4.58001155         0.00000000       0.00000000       0.00000000          1
H         6.26536609      10.59825536       9.40599598         0.00000000       0.00000000       0.00000000          1
H         4.59014085      10.54880112       5.99942379         0.00000000       0.00000000       0.00000000          1
H        14.97276006       8.78571494       7.22519894         0.00000000       0.00000000       0.00000000          1
6
pbc=[F, F, F] list_num_par=6 frozen=false iter=159 energy=-0.05225181 Lattice="15.00000000 0.00000000 0.00000000 0.00000000 15.00000000 0.00000000 0.00000000 0.00000000 15.00000000" energy_frozen_part=0.00000000 Properties=species:S:1:pos:R:3:velocities:R:3:Z:I:1
H        10.64612126       5.50517251      11.55829614         0.00000000       0.00000000       0.00000000          1
H         5.41205232       0.54946335       7.07234154         0.00000000       0.00000000       0.00000000          1
H         2.33298201      14.32969016       0.94108988         0.00000000       0.00000000       0.00000000          1
H        12.83301283       0.25402816       9.24050953         0.00000000       0.00000000       0.00000000          1
H        12.68878639       1.15385691      12.66317678         0.00000000       0.00000000       0.00000000          1
H        12.86859936       7.71870747       3.28473680         0.00000000       0.00000000       0.00000000          1
6
pbc=[F, F, F] list_num_par=6 frozen=false iter=169 energy=-0.05609587 Lattice="15.00000000 0.00000000 0.00000000 0.00000000 15.00000000 0.00000000 0.00000000 0.00000000 15.00000000" energy_frozen_part=0.00000000 Properties=species:S:1:pos:R:3:velocities:R:3:Z:I:1
H         2.74746185       4.00158315       0.78100450         0.00000000       0.00000000       0.00000000          1
H         3.65335982       6.63813984      12.96819777         0.00000000       0.00000000       0.00000000          1
H         2.95050166       3.52603954       4.31797937         0.00000000       0.00000000       0.00000000          1
H         9.72773964       3.87109022       9.94097462         0.00000000       0.00000000       0.00000000          1
H         8.36060795       1.55810800      14.32087001         0.00000000       0.00000000       0.00000000          1
H         0.42846717       3.35528247      14.19813941         0.00000000       0.00000000       0.00000000          1
6
pbc=[F, F, F] list_num_par=6 frozen=false iter=179 energy=-0.06631739 Lattice="15.00000000 0.00000000 0.00000000 0.00000000 15.00000000 0.00000000 0.00000000 0.00000000 15.00000000" energy_frozen_part=0.00000000 Properties=species:S:1:pos:R:3:velocities:R:3:Z:I:1
H         0.71557893       9.02699229      11.84283388         0.00000000       0.00000000       0.00000000          1
H         8.58442138       1.30593687      10.12438470         0.00000000       0.00000000       0.00000000          1
H         5.77731536      11.07268209       6.62608467         0.00000000       0.00000000       0.00000000          1
H         5.54586395      11.22731202      12.24200053         0.00000000       0.00000000       0.00000000          1
H         4.33391373      13.15616205      11.16692365         0.00000000       0.00000000       0.00000000          1
H         8.28940140      12.60186241       4.34973575         0.00000000       0.00000000       0.00000000          1
6
pbc=[F, F, F] list_num_par=6 frozen=false iter=189 energy=-0.07308934 Lattice="15.00000000 0.00000000 0.00000000 0.00000000 15.00000000 0.00000000 0.00000000 0.00000000 15.00000000" energy_frozen_part=0.00000000 Properties=species:S:1:pos:R:3:velocities:R:3:Z:I:1
H        13.65262692       2.62884028       4.37543393         0.00000000       0.00000000       0.00000000          1
H         0.35046078       2.37598020       0.19427537         0.00000000       0.00000000       0.00000000          1
H         9.74908784      14.69176513       8.07750753         0.00000000       0.00000000       0.00000000          1
H         6.65244706       8.14489005      12.29258628         0.00000000       0.00000000       0.00000000          1
H         0.17311711       2.48627059      11.29832342         0.00000000       0.00000000       0.00000000          1
H         8.12718716       9.55414828       9.82363098         0.00000000       0.00000000       0.00000000          1
6
pbc=[F, F, F] list_num_par=6 frozen=false iter=199 energy=-0.07736640 Lattice="15.00000000 0.00000000 0.00000000 0.00000000 15.00000000 0.00000000 0.00000000 0.00000000 15.00000000" energy_frozen_part=0.00000000 Properties=species:S:1:pos:R:3:velocities:R:3:Z:I:1
H         7.30647204       3.75411112       7.64761174         0.00000000       0.00000000       0.00000000          1
H        10.54957256       0.47964598       0.01618361         0.00000000       0.00000000       0.00000000          1
H         2.69125806       1.81024097       1.01595523         0.00000000       0.00000000       0.00000000          1
H         5.20399700       1.68657270       5.59147144         0.00000000       0.00000000       0.00000000          1
H         7.36991822       5.49348883       3.98823814         0.00000000       0.00000000       0.00000000          1
H         4.68140475      12.45548794       0.48726164         0.00000000       0.00000000       0.00000000          1
6
pbc=[F, F, F] list_num_par=6 frozen=false iter=209 energy=-0.08095400 Lattice="15.00000000 0.00000000 0.00000000 0.00000000 15.00000000 0.00000000 0.00000000 0.00000000 15.00000000" energy_frozen_part=0.00000000 Properties=species:S:1:pos:R:3:velocities:R:3:Z:I:1
H         7.66283578      10.55586306      13.00397804         0.00000000       0.00000000       0.00000000          1
H         0.04368417      10.22106747       1.02214670         0.00000000       0.00000000       0.00000000          1
H        10.15394998      10.78745253      11.05815468         0.00000000       0.00000000       0.00000000          1
H         1.77357491       7.80953997      13.91244341         0.00000000       0.00000000       0.00000000          1
H         4.44586484       9.44886665       3.18977181         0.00000000       0.00000000       0.00000000          1
H         5.17578819       1.98356080       2.19925501         0.00000000       0.00000000       0.00000000          1
6
pbc=[F, F, F] list_num_par=6 frozen=false iter=219 energy=-0.08625369 Lattice="15.00000000 0.00000000 0.00000000 0.00000000 15.00000000 0.00000000 0.00000000 0.00000000 15.00000000" energy_frozen_part=0.00000000 Properties=species:S:1:pos:R:3:velocities:R:3:Z:I:1
H         4.09862466       2.44366520       9.99028043         0.00000000       0.00000000       0.00000000          1
H         9.43560817      14.32444411       9.86842703         0.00000000       0.00000000       0.00000000          1
H         6.56749740       0.60001487      10.35497121         0.00000000       0.00000000       0.00000000          1
H         2.02039597       7.62003406       6.70831948         0.00000000       0.00000000       0.00000000          1
H        12.22813793       1.27225860       9.84919133         0.00000000       0.00000000       0.00000000          1
H         0.19602995       7.08155161       1.31444557         0.00000000       0.00000000       0.00000000          1
6
pbc=[F, F, F] list_num_par=6 frozen=false iter=229 energy=-0.09059984 Lattice="15.00000000 0.00000000 0.00000000 0.00000000 15.00000000 0.00000000 0.00000000 0.00000000 15.00000000" energy_frozen_part=0.00000000 Properties=species:S:1:pos:R:3:velocities:R:3:Z:I:1
H         1.20807100       8.68439552      12.12414838         0.00000000       0.00000000       0.00000000          1
H         0.86401998       4.72203608       3.30546291         0.00000000       0.00000000       0.00000000          1
H         3.86187006       5.45957297       2.05850141         0.00000000       0.00000000       0.00000000          1
H         3.21614460       5.17702800      12.12047619         0.00000000       0.00000000       0.00000000          1
H         7.87292428       6.04213472      12.20668609         0.00000000       0.00000000       0.00000000          1
H         9.24286305      11.90797338      13.79576233         0.00000000       0.00000000       0.00000000          1
6
pbc=[F, F, F] list_num_par=6 frozen=false iter=239 energy=-0.09393455 Lattice="15.00000000 0.00000000 0.00000000 0.00000000 15.00000000 0.00000000 0.00000000 0.00000000 15.00000000" energy_frozen_part=0.00000000 Properties=species:S:1:pos:R:3:velocities:R:3:Z:I:1
H         9.31790199       2.19865287       7.35587764         0.00000000       0.00000000       0.00000000          1
H        14.20702690       1.34244922       7.26430883         0.00000000       0.00000000       0.00000000          1
H        12.78461005       7.69008148       2.92417779         0.00000000       0.00000000       0.00000000          1
H         1.79818693       4.86918472       9.69475169         0.00000000       0.00000000       0.00000000          1
H         9.29037495       5.38761926       5.41937014         0.00000000       0.00000000       0.00000000          1
H         9.69754914       7.56694047       6.66274986         0.00000000       0.00000000       0.00000000          1
6
pbc=[F, F, F] list_num_par=6 frozen=false iter=249 energy=-0.09815222 Lattice="15.00000000 0.00000000 0.00000000 0.00000000 15.00000000 0.00000000 0.00000000 0.00000000 15.00000000" energy_frozen_part=0.00000000 Properties=species:S:1:pos:R:3:velocities:R:3:Z:I:1
H        12.28380338       7.05439431       9.22125454         0.00000000       0.00000000       0.00000000          1
H         6.98183059      14.79101072       6.95636808         0.00000000       0.00000000       0.00000000          1
H         2.93803004       0.33368331      11.47076163         0.00000000       0.00000000       0.00000000          1
H         3.91479242       0.82832124       7.75875245         0.00000000       0.00000000       0.00000000          1
H        14.71088311       5.19201130      10.46504816         0.00000000       0.00000000       0.00000000          1
H         9.31541975      10.88105224      10.09676190         0.00000000       0.00000000       0.00000000          1
6
pbc=[F, F, F] list_num_par=6 frozen=false iter=259 energy=-0.10056447 Lattice="15.00000000 0.00000000 0.00000000 0.00000000 15.00000000 0.00000000 0.00000000 0.00000000 15.00000000" energy_frozen_part=0.00000000 Properties=species:S:1:pos:R:3:velocities:R:3:Z:I:1
H         9.97185494       1.94054581      12.88573257         0.00000000       0.00000000       0.00000000          1
H        14.74049265       5.62912840      10.31255691         0.00000000       0.00000000       0.00000000          1
H         9.26926092       5.51530747      12.39844989         0.00000000       0.00000000       0.00000000          1
H         6.14743894      10.23763434       2.98999104         0.00000000       0.00000000       0.00000000          1
H         9.53522558       2.78752578       9.38140204         0.00000000       0.00000000       0.00000000          1
H         0.56079805      10.98564068       0.32288731         0.00000000       0.00000000       0.00000000          1
6
pbc=[F, F, F] list_num_par=6 frozen=false iter=269 energy=-0.10280235 Lattice="15.00000000 0.00000000 0.00000000 0.00000000 15.00000000 0.00000000 0.00000000 0.00000000 15.00000000" energy_frozen_part=0.00000000 Properties=species:S:1:pos:R:3:velocities:R:3:Z:I:1
H        11.27925831       2.76397947      14.52994307         0.00000000       0.00000000       0.00000000          1
H        14.76506913       0.94912044      10.07274450         0.00000000       0.00000000       0.00000000          1
H        13.74001234       0.84118031       7.49058675         0.00000000       0.00000000       0.00000000          1
H        11.48757154      12.43156328       3.35571469         0.00000000       0.00000000       0.00000000          1
H         7.25356540      10.31668592      12.87205466         0.00000000       0.00000000       0.00000000          1
H         5.31151915       8.97131585       2.26327070         0.00000000       0.00000000       0.00000000          1
6
pbc=[F, F, F] list_num_par=6 frozen=false iter=279 energy=-0.10489140 Lattice="15.00000000 0.00000000 0.00000000 0.00000000 15.00000000 0.00000000 0.00000000 0.00000000 15.00000000" energy_frozen_part=0.00000000 Properties=species:S:1:pos:R:3:velocities:R:3:Z:I:1
H         9.66443423       2.57951520       1.90592403         0.00000000       0.00000000       0.00000000          1
H         0.71052668      11.18350764      14.68232270         0.00000000       0.00000000       0.00000000          1
H         5.91945537      11.20060107       4.12750183         0.00000000       0.00000000       0.00000000          1
H        10.48754200       0.63984334       3.61239169         0.00000000       0.00000000       0.00000000          1
H         8.18534647       4.36880733       9.08710830         0.00000000       0.00000000       0.00000000          1
H         4.98715759      12.45353677       8.59851257         0.00000000       0.00000000       0.00000000          1
6
pbc=[F, F, F] list_num_par=6 frozen=false iter=289 energy=-0.10656002 Lattice="15.00000000 0.00000000 0.00000000 0.00000000 15.00000000 0.00000000 0.00000000 0.00000000 15.00000000" energy_frozen_part=0.00000000 Properties=species:S:1:pos:R:3:velocities:R:3:Z:I:1
H         1.37229714       0.22368781       8.54028377         0.00000000       0.00000000       0.00000000          1
H        11.80696640      14.22801393      13.50745237         0.00000000       0.00000000       0.00000000          1
H         4.11469453       0.85466504       9.18002014         0.00000000       0.00000000       0.00000000          1
H         0.45050113       6.64893322       0.16736122         0.00000000       0.00000000       0.00000000          1
H         8.17317841       1.96455257      11.55096102         0.00000000       0.00000000       0.00000000          1
H        10.51818886       5.86911750       6.72690994         0.00000000       0.00000000       0.00000000          1
6
pbc=[F, F, F] list_num_par=6 frozen=false iter=299 energy=-0.10874501 Lattice="15.00000000 0.00000000 0.00000000 0.00000000 15.00000000 0.00000000 0.00000000 0.00000000 15.00000000" energy_frozen_part=0.00000000 Properties=species:S:1:pos:R:3:velocities:R:3:Z:I:1
H         2.07880113       7.88738981       7.85784906         0.00000000       0.00000000       0.00000000          1
H         5.28755027       4.81497856      13.73006625         0.00000000       0.00000000       0.00000000          1
H         1.13920281       5.12763607       6.83325937         0.00000000       0.00000000       0.00000000          1
H        12.38864855       8.71091081      13.04316241         0.00000000       0.00000000       0.00000000          1
H         4.55101028       9.57014027      10.67862773         0.00000000       0.00000000       0.00000000          1
H        13.96802922      13.72429686      13.86571632         0.00000000       0.00000000       0.00000000          1
6
pbc=[F, F, F] list_num_par=6 frozen=false iter=309 energy=-0.11064619 Lattice="15.00000000 0.00000000 0.00000000 0.00000000 15.00000000 0.00000000 0.00000000 0.00000000 15.00000000" energy_frozen_part=0.00000000 Properties=species:S:1:pos:R:3:velocities:R:3:Z:I:1
H        13.06175940       0.03868922      11.53839121         0.00000000       0.00000000       0.00000000          1
H         7.63595197       9.55865396       5.83363625         0.00000000       0.00000000       0.00000000          1