6
pbc=[F, F, F] list_num_par=6 frozen=false iter=20000 energy=-1.26974174 Lattice="15.00000000 0.00000000 0.00000000 0.00000000 15.00000000 0.00000000 0.00000000 0.00000000 15.00000000" energy_frozen_part=0.00000000 Properties=species:S:1:pos:R:3:velocities:R:3:Z:I:1
H         4.03894007       5.24149604      14.01814260         0.00000000       0.00000000       0.00000000          1
H         1.99071244       4.95698791      12.13981146         0.00000000       0.00000000       0.00000000          1
H         3.71084229       5.85162999      10.12857927         0.00000000       0.00000000       0.00000000          1
H         3.30471656       7.40706529      12.41330757         0.00000000       0.00000000       0.00000000          1
H         4.44506716       3.68605854      11.73341997         0.00000000       0.00000000       0.00000000          1
H         5.75907584       6.13613628      12.00690190         0.00000000       0.00000000       0.00000000          1
6
pbc=[F, F, F] list_num_par=6 frozen=false iter=20000 energy=-1.26974174 Lattice="15.00000000 0.00000000 0.00000000 0.00000000 15.00000000 0.00000000 0.00000000 0.00000000 15.00000000" energy_frozen_part=0.00000000 Properties=species:S:1:pos:R:3:velocities:R:3:Z:I:1
H         4.03938075       5.24251082      14.01768559         0.00000000       0.00000000       0.00000000          1
H         1.99090108       4.95660851      12.13985041         0.00000000       0.00000000       0.00000000          1
H         3.71028315       5.85127069      10.12799055         0.00000000       0.00000000       0.00000000          1
H         3.30399563       7.40728173      12.41229115         0.00000000       0.00000000       0.00000000          1
H         4.44566877       3.68650054      11.73337952         0.00000000       0.00000000       0.00000000          1
H         5.75876695       6.13717451      12.00583089         0.00000000       0.00000000       0.00000000          1
6
pbc=[F, F, F] list_num_par=6 frozen=false iter=20000 energy=-1.26974174 Lattice="15.00000000 0.00000000 0.00000000 0.00000000 15.00000000 0.00000000 0.00000000 0.00000000 15.00000000" energy_frozen_part=0.00000000 Properties=species:S:1:pos:R:3:velocities:R:3:Z:I:1
H         4.03893375       5.24148708      14.01811190         0.00000000       0.00000000       0.00000000          1
H         1.99071666       4.95697882      12.13978015         0.00000000       0.00000000       0.00000000          1
H         3.71085391       5.85163660      10.12855347         0.00000000       0.00000000       0.00000000          1
H         3.30470704       7.40706100      12.41327258         0.00000000       0.00000000       0.00000000          1
H         4.44507377       3.68605857      11.73338033         0.00000000       0.00000000       0.00000000          1
H         5.75906917       6.13613979      12.00688880         0.00000000       0.00000000       0.00000000          1
6
pbc=[F, F, F] list_num_par=6 frozen=false iter=20000 energy=-1.26974174 Lattice="15.00000000 0.00000000 0.00000000 0.00000000 15.00000000 0.00000000 0.00000000 0.00000000 15.00000000" energy_frozen_part=0.00000000 Properties=species:S:1:pos:R:3:velocities:R:3:Z:I:1
H         4.03894000       5.24152267      14.01813928         0.00000000       0.00000000       0.00000000          1
H         1.99071275       4.95699923      12.13981911         0.00000000       0.00000000       0.00000000          1
H         3.71084085       5.85162131      10.12857687         0.00000000       0.00000000       0.00000000          1
H         3.30471831       7.40708110      12.41327572         0.00000000       0.00000000       0.00000000          1
H         4.44506892       3.68606682      11.73342677         0.00000000       0.00000000       0.00000000          1
H         5.75907608       6.13614451      12.00689815         0.00000000       0.00000000       0.00000000          1
6
pbc=[F, F, F] list_num_par=6 frozen=false iter=20000 energy=-1.26974174 Lattice="15.00000000 0.00000000 0.00000000 0.00000000 15.00000000 0.00000000 0.00000000 0.00000000 15.00000000" energy_frozen_part=0.00000000 Properties=species:S:1:pos:R:3:velocities:R:3:Z:I:1
H         4.03885121       5.24159401      14.01815774         0.00000000       0.00000000       0.00000000          1
H         1.99068380       4.95706257      12.13977526         0.00000000       0.00000000       0.00000000          1
H         3.71090564       5.85159444      10.12856710         0.00000000       0.00000000       0.00000000          1
H         3.30472565       7.40712689      12.41322225         0.00000000       0.00000000       0.00000000          1
H         4.44502482       3.68607126      11.73350445         0.00000000       0.00000000       0.00000000          1
H         5.75907038       6.13613348      12.00696109         0.00000000       0.00000000       0.00000000          1
6
pbc=[F, F, F] list_num_par=6 frozen=false iter=20000 energy=-1.26974174 Lattice="15.00000000 0.00000000 0.00000000 0.00000000 15.00000000 0.00000000 0.00000000 0.00000000 15.00000000" energy_frozen_part=0.00000000 Properties=species:S:1:pos:R:3:velocities:R:3:Z:I:1
H         4.03884157       5.24155582      14.01815348         0.00000000       0.00000000       0.00000000          1
H         1.99066097       4.95706735      12.13977503         0.00000000       0.00000000       0.00000000          1
H         3.71087657       5.85163044      10.12857684         0.00000000       0.00000000       0.00000000          1
H         3.30471067       7.40711718      12.41326137         0.00000000       0.00000000       0.00000000          1
H         4.44499992       3.68606939      11.73346086         0.00000000       0.00000000       0.00000000          1
H         5.75905134       6.13612188      12.00695785         0.00000000       0.00000000       0.00000000          1
6
pbc=[F, F, F] list_num_par=6 frozen=false iter=20000 energy=-1.26974174 Lattice="15.00000000 0.00000000 0.00000000 0.00000000 15.00000000 0.00000000 0.00000000 0.00000000 15.00000000" energy_frozen_part=0.00000000 Properties=species:S:1:pos:R:3:velocities:R:3:Z:I:1
H         4.03893274       5.24142961      14.01818580         0.00000000       0.00000000       0.00000000          1
H         1.99074482       4.95692288      12.13981310         0.00000000       0.00000000       0.00000000          1
H         3.71090751       5.85159250      10.12862629         0.00000000       0.00000000       0.00000000          1
H         3.30472510       7.40701081      12.41334941         0.00000000       0.00000000       0.00000000          1
H         4.44512422       3.68601085      11.73346449         0.00000000       0.00000000       0.00000000          1
H         5.75909992       6.13609907      12.00699635         0.00000000       0.00000000       0.00000000          1
6
pbc=[F, F, F] list_num_par=6 frozen=false iter=20000 energy=-1.26974174 Lattice="15.00000000 0.00000000 0.00000000 0.00000000 15.00000000 0.00000000 0.00000000 0.00000000 15.00000000" energy_frozen_part=0.00000000 Properties=species:S:1:pos:R:3:velocities:R:3:Z:I:1
H         4.02529504       5.22760836      14.04042987         0.00000000       0.00000000       0.00000000          1
H         1.97282694       4.96316474      12.16380209         0.00000000       0.00000000       0.00000000          1
H         3.69658251       5.85230436      10.15324129         0.00000000       0.00000000       0.00000000          1
H         3.30402678       7.40325630      12.44337056         0.00000000       0.00000000       0.00000000          1
H         4.41785377       3.67665017      11.75029268         0.00000000       0.00000000       0.00000000          1
H         5.74905316       6.11674010      12.02985788         0.00000000       0.00000000       0.00000000          1
6
pbc=[F, F, F] list_num_par=6 frozen=false iter=20000 energy=-1.26974174 Lattice="15.00000000 0.00000000 0.00000000 0.00000000 15.00000000 0.00000000 0.00000000 0.00000000 15.00000000" energy_frozen_part=0.00000000 Properties=species:S:1:pos:R:3:velocities:R:3:Z:I:1
H         4.03900665       5.24154080      14.01811191         0.00000000       0.00000000       0.00000000          1
H         1.99074647       4.95699667      12.13983013         0.00000000       0.00000000       0.00000000          1
H         3.71081573       5.85167054      10.12855781         0.00000000       0.00000000       0.00000000          1
H         3.30470056       7.40709641      12.41328715         0.00000000       0.00000000       0.00000000          1
H         4.44511552       3.68611785      11.73338056         0.00000000       0.00000000       0.00000000          1
H         5.75907377       6.13621702      12.00684666         0.00000000       0.00000000       0.00000000          1
6
pbc=[F, F, F] list_num_par=6 frozen=false iter=20000 energy=-1.26974174 Lattice="15.00000000 0.00000000 0.00000000 0.00000000 15.00000000 0.00000000 0.00000000 0.00000000 15.00000000" energy_frozen_part=0.00000000 Properties=species:S:1:pos:R:3:velocities:R:3:Z:I:1
H         4.03884626       5.24155556      14.01815606         0.00000000       0.00000000       0.00000000          1
H         1.99065404       4.95706004      12.13978476         0.00000000       0.00000000       0.00000000          1
H         3.71085389       5.85163168      10.12858038         0.00000000       0.00000000       0.00000000          1
H         3.30470835       7.40711500      12.41326493         0.00000000       0.00000000       0.00000000          1
H         4.44498961       3.68606936      11.73347603         0.00000000       0.00000000       0.00000000          1
H         5.75904835       6.13612021      12.00694251         0.00000000       0.00000000       0.00000000          1
6
pbc=[F, F, F] list_num_par=6 frozen=false iter=20000 energy=-1.26974174 Lattice="15.00000000 0.00000000 0.00000000 0.00000000 15.00000000 0.00000000 0.00000000 0.00000000 15.00000000" energy_frozen_part=0.00000000 Properties=species:S:1:pos:R:3:velocities:R:3:Z:I:1
H         4.02542332       5.22766465      14.04040064         0.00000000       0.00000000       0.00000000          1
H         1.97290358       4.96317121      12.16384048         0.00000000       0.00000000       0.00000000          1
H         3.69658139       5.85235571      10.15322806         0.00000000       0.00000000       0.00000000          1
H         3.30404165       7.40329863      12.44336979         0.00000000       0.00000000       0.00000000          1
H         4.41795251       3.67671665      11.75025669         0.00000000       0.00000000       0.00000000          1
H         5.74910166       6.11684075      12.02978873         0.00000000       0.00000000       0.00000000          1
6
pbc=[F, F, F] list_num_par=6 frozen=false iter=20000 energy=-1.26974174 Lattice="15.00000000 0.00000000 0.00000000 0.00000000 15.00000000 0.00000000 0.00000000 0.00000000 15.00000000" energy_frozen_part=0.00000000 Properties=species:S:1:pos:R:3:velocities:R:3:Z:I:1
H         4.02531059       5.22758948      14.04042990         0.00000000       0.00000000       0.00000000          1
H         1.97284368       4.96314518      12.16379915         0.00000000       0.00000000       0.00000000          1
H         3.69659445       5.85232416      10.15324839         0.00000000       0.00000000       0.00000000          1
H         3.30400836       7.40324941      12.44339706         0.00000000       0.00000000       0.00000000          1
H         4.41788753       3.67666317      11.75028445         0.00000000       0.00000000       0.00000000          1
H         5.74905897       6.11676590      12.02986790         0.00000000       0.00000000       0.00000000          1
6
pbc=[F, F, F] list_num_par=6 frozen=false iter=20000 energy=-1.26974174 Lattice="15.00000000 0.00000000 0.00000000 0.00000000 15.00000000 0.00000000 0.00000000 0.00000000 15.00000000" energy_frozen_part=0.00000000 Properties=species:S:1:pos:R:3:velocities:R:3:Z:I:1
H         4.03893498       5.24142046      14.01818764         0.00000000       0.00000000       0.00000000          1
H         1.99075321       4.95690346      12.13981217         0.00000000       0.00000000       0.00000000          1
H         3.71091315       5.85158926      10.12863321         0.00000000       0.00000000       0.00000000          1
H         3.30471058       7.40699694      12.41335972         0.00000000       0.00000000       0.00000000          1
H         4.44512710       3.68600504      11.73345924         0.00000000       0.00000000       0.00000000          1
H         5.75909038       6.13610232      12.00700021         0.00000000       0.00000000       0.00000000          1
6
pbc=[F, F, F] list_num_par=6 frozen=false iter=20000 energy=-1.26974174 Lattice="15.00000000 0.00000000 0.00000000 0.00000000 15.00000000 0.00000000 0.00000000 0.00000000 15.00000000" energy_frozen_part=0.00000000 Properties=species:S:1:pos:R:3:velocities:R:3:Z:I:1
H         4.02541417       5.22765483      14.04040752         0.00000000       0.00000000       0.00000000          1
H         1.97290489       4.96318975      12.16383475         0.00000000       0.00000000       0.00000000          1
H         3.69659246       5.85238453      10.15323313         0.00000000       0.00000000       0.00000000          1
H         3.30405784       7.40330145      12.44339238         0.00000000       0.00000000       0.00000000          1
H         4.41794949       3.67673603      11.75024590         0.00000000       0.00000000       0.00000000          1
H         5.74910592       6.11684806      12.02981160         0.00000000       0.00000000       0.00000000          1
6
pbc=[F, F, F] list_num_par=6 frozen=false iter=20000 energy=-1.26974174 Lattice="15.00000000 0.00000000 0.00000000 0.00000000 15.00000000 0.00000000 0.00000000 0.00000000 15.00000000" energy_frozen_part=0.00000000 Properties=species:S:1:pos:R:3:velocities:R:3:Z:I:1
H         4.03943445       5.24259366      14.01772434         0.00000000       0.00000000       0.00000000          1
H         1.99089524       4.95671505      12.13994501         0.00000000       0.00000000       0.00000000          1
H         3.71026969       5.85128282      10.12803299         0.00000000       0.00000000       0.00000000          1
H         3.30408461       7.40735590      12.41231517         0.00000000       0.00000000       0.00000000          1
H         4.44560589       3.68651652      11.73344038         0.00000000       0.00000000       0.00000000          1
H         5.75880205       6.13714979      12.00580867         0.00000000       0.00000000       0.00000000          1
6
pbc=[F, F, F] list_num_par=6 frozen=false iter=20000 energy=-1.26974174 Lattice="15.00000000 0.00000000 0.00000000 0.00000000 15.00000000 0.00000000 0.00000000 0.00000000 15.00000000" energy_frozen_part=0.00000000 Properties=species:S:1:pos:R:3:velocities:R:3:Z:I:1
H         4.03939606       5.24252282      14.01769013         0.00000000       0.00000000       0.00000000          1
H         1.99088527       4.95662886      12.13988355         0.00000000       0.00000000       0.00000000          1
H         3.71025700       5.85125756      10.12799799         0.00000000       0.00000000       0.00000000          1
H         3.30400720       7.40728782      12.41229558         0.00000000       0.00000000       0.00000000          1
H         4.44563592       3.68648941      11.73338995         0.00000000       0.00000000       0.00000000          1
H         5.75875953       6.13716015      12.00580733         0.00000000       0.00000000       0.00000000          1
6
pbc=[F, F, F] list_num_par=6 frozen=false iter=20000 energy=-1.26974174 Lattice="15.00000000 0.00000000 0.00000000 0.00000000 15.00000000 0.00000000 0.00000000 0.00000000 15.00000000" energy_frozen_part=0.00000000 Properties=species:S:1:pos:R:3:velocities:R:3:Z:I:1
H         4.02530690       5.22759858      14.04043230         0.00000000       0.00000000       0.00000000          1
H         1.97283922       4.96315337      12.16381244         0.00000000       0.00000000       0.00000000          1
H         3.69658956       5.85231451      10.15324145         0.00000000       0.00000000       0.00000000          1
H         3.30402404       7.40325179      12.44338118         0.00000000       0.00000000       0.00000000          1
H         4.41787179       3.67665429      11.75028370         0.00000000       0.00000000       0.00000000          1
H         5.74906024       6.11674553      12.02986326         0.00000000       0.00000000       0.00000000          1
6
pbc=[F, F, F] list_num_par=6 frozen=false iter=20000 energy=-1.26974174 Lattice="15.00000000 0.00000000 0.00000000 0.00000000 15.00000000 0.00000000 0.00000000 0.00000000 15.00000000" energy_frozen_part=0.00000000 Properties=species:S:1:pos:R:3:velocities:R:3:Z:I:1
H         4.03900253       5.24147453      14.01817229         0.00000000       0.00000000       0.00000000          1
H         1.99077873       4.95688754      12.13986094         0.00000000       0.00000000       0.00000000          1
H         3.71086589       5.85157110      10.12862144         0.00000000       0.00000000       0.00000000          1
H         3.30469951       7.40701308      12.41332731         0.00000000       0.00000000       0.00000000          1
H         4.44516816       3.68602861      11.73345960         0.00000000       0.00000000       0.00000000          1
H         5.75909437       6.13614998      12.00692963         0.00000000       0.00000000       0.00000000          1
6
pbc=[F, F, F] list_num_par=6 frozen=false iter=20000 energy=-1.26974174 Lattice="15.00000000 0.00000000 0.00000000 0.00000000 15.00000000 0.00000000 0.00000000 0.00000000 15.00000000" energy_frozen_part=0.00000000 Properties=species:S:1:pos:R:3:velocities:R:3:Z:I:1
H         4.03899219       5.24151935      14.01810965         0.00000000       0.00000000       0.00000000          1
H         1.99073141       4.95698196      12.13981951         0.00000000       0.00000000       0.00000000          1
H         3.71080017       5.85167743      10.12856295         0.00000000       0.00000000       0.00000000          1
H         3.30468452       7.40708466      12.41331124         0.00000000       0.00000000       0.00000000          1
H         4.44510611       3.68610497      11.73337248         0.00000000       0.00000000       0.00000000          1
H         5.75906176       6.13620596      12.00684780         0.00000000       0.00000000       0.00000000          1
6
pbc=[F, F, F] list_num_par=6 frozen=false iter=20000 energy=-1.26974174 Lattice="15.00000000 0.00000000 0.00000000 0.00000000 15.00000000 0.00000000 0.00000000 0.00000000 15.00000000" energy_frozen_part=0.00000000 Properties=species:S:1:pos:R:3:velocities:R:3:Z:I:1
H         4.03901775       5.24163953      14.01809017         0.00000000       0.00000000       0.00000000          1
H         1.99076933       4.95700545      12.13980524         0.00000000       0.00000000       0.00000000          1
H         3.71086593       5.85156413      10.12850137         0.00000000       0.00000000       0.00000000          1
H         3.30474234       7.40711341      12.41314305         0.00000000       0.00000000       0.00000000          1
H         4.44513204       3.68608633      11.73343882         0.00000000       0.00000000       0.00000000          1
H         5.75911024       6.13619716      12.00679497         0.00000000       0.00000000       0.00000000          1
6
pbc=[F, F, F] list_num_par=6 frozen=false iter=20000 energy=-1.26974174 Lattice="15.00000000 0.00000000 0.00000000 0.00000000 15.00000000 0.00000000 0.00000000 0.00000000 15.00000000" energy_frozen_part=0.00000000 Properties=species:S:1:pos:R:3:velocities:R:3:Z:I:1
H         4.03889536       5.24153404      14.01821423         0.00000000       0.00000000       0.00000000          1
H         1.99070008       4.95703734      12.13984603         0.00000000       0.00000000       0.00000000          1
H         3.71089874       5.85159988      10.12863582         0.00000000       0.00000000       0.00000000          1
H         3.30474633       7.40709204      12.41332016         0.00000000       0.00000000       0.00000000          1
H         4.44504369       3.68605014      11.73353307         0.00000000       0.00000000       0.00000000          1
H         5.75908890       6.13610605      12.00699662         0.00000000       0.00000000       0.00000000          1
6
pbc=[F, F, F] list_num_par=6 frozen=false iter=20000 energy=-1.26974174 Lattice="15.00000000 0.00000000 0.00000000 0.00000000 15.00000000 0.00000000 0.00000000 0.00000000 15.00000000" energy_frozen_part=0.00000000 Properties=species:S:1:pos:R:3:velocities:R:3:Z:I:1
H         4.03941851       5.24255757      14.01770793         0.00000000       0.00000000       0.00000000          1
H         1.99089391       4.95676289      12.13990312         0.00000000       0.00000000       0.00000000          1
H         3.71032442       5.85129926      10.12802418         0.00000000       0.00000000       0.00000000          1
H         3.30416326       7.40736536      12.41231154         0.00000000       0.00000000       0.00000000          1
H         4.44557930       3.68649384      11.73341834         0.00000000       0.00000000       0.00000000          1
H         5.75884726       6.13709533      12.00583038         0.00000000       0.00000000       0.00000000          1
6
pbc=[F, F, F] list_num_par=6 frozen=false iter=20000 energy=-1.26974174 Lattice="15.00000000 0.00000000 0.00000000 0.00000000 15.00000000 0.00000000 0.00000000 0.00000000 15.00000000" energy_frozen_part=0.00000000 Properties=species:S:1:pos:R:3:velocities:R:3:Z:I:1
H         4.03893618       5.24147352      14.01809896         0.00000000       0.00000000       0.00000000          1
H         1.99071298       4.95695756      12.13977372         0.00000000       0.00000000       0.00000000          1
H         3.71083828       5.85163208      10.12855316         0.00000000       0.00000000       0.00000000          1
H         3.30469123       7.40704833      12.41327932         0.00000000       0.00000000       0.00000000          1
H         4.44508764       3.68606218      11.73336317         0.00000000       0.00000000       0.00000000          1
H         5.75906301       6.13615435      12.00687860         0.00000000       0.00000000       0.00000000          1
6
pbc=[F, F, F] list_num_par=6 frozen=false iter=20000 energy=-1.26974174 Lattice="15.00000000 0.00000000 0.00000000 0.00000000 15.00000000 0.00000000 0.00000000 0.00000000 15.00000000" energy_frozen_part=0.00000000 Properties=species:S:1:pos:R:3:velocities:R:3:Z:I:1
H         4.02541177       5.22766382      14.04040035         0.00000000       0.00000000       0.00000000          1
H         1.97290005       4.96318082      12.16383237         0.00000000       0.00000000       0.00000000          1
H         3.69658281       5.85233196      10.15321120         0.00000000       0.00000000       0.00000000          1
H         3.30405913       7.40329447      12.44335347         0.00000000       0.00000000       0.00000000          1
H         4.41793507       3.67669626      11.75026557         0.00000000       0.00000000       0.00000000          1
H         5.74909580       6.11681500      12.02978565         0.00000000       0.00000000       0.00000000          1
6
pbc=[F, F, F] list_num_par=6 frozen=false iter=20000 energy=-1.26974174 Lattice="15.00000000 0.00000000 0.00000000 0.00000000 15.00000000 0.00000000 0.00000000 0.00000000 15.00000000" energy_frozen_part=0.00000000 Properties=species:S:1:pos:R:3:velocities:R:3:Z:I:1
H         4.03883422       5.24155832      14.01814936         0.00000000       0.00000000       0.00000000          1
H         1.99065160       4.95706911      12.13977112         0.00000000       0.00000000       0.00000000          1
H         3.71085947       5.85162633      10.12857620         0.00000000       0.00000000       0.00000000          1
H         3.30470954       7.40712071      12.41325256         0.00000000       0.00000000       0.00000000          1
H         4.44499472       3.68606886      11.73346637         0.00000000       0.00000000       0.00000000          1
H         5.75904887       6.13611900      12.00695107         0.00000000       0.00000000       0.00000000          1
6
pbc=[F, F, F] list_num_par=6 frozen=false iter=20000 energy=-1.26974174 Lattice="15.00000000 0.00000000 0.00000000 0.00000000 15.00000000 0.00000000 0.00000000 0.00000000 15.00000000" energy_frozen_part=0.00000000 Properties=species:S:1:pos:R:3:velocities:R:3:Z:I:1
H         4.03937050       5.24252711      14.01768429         0.00000000       0.00000000       0.00000000          1
H         1.99088600       4.95662160      12.13985866         0.00000000       0.00000000       0.00000000          1
H         3.71028052       5.85125991      10.12799481         0.00000000       0.00000000       0.00000000          1
H         3.30399656       7.40729205      12.41228923         0.00000000       0.00000000       0.00000000          1
H         4.44565255       3.68649561      11.73339624         0.00000000       0.00000000       0.00000000          1
H         5.75876295       6.13716978      12.00583326         0.00000000       0.00000000       0.00000000          1
6
pbc=[F, F, F] list_num_par=6 frozen=false iter=20000 energy=-1.26974174 Lattice="15.00000000 0.00000000 0.00000000 0.00000000 15.00000000 0.00000000 0.00000000 0.00000000 15.00000000" energy_frozen_part=0.00000000 Properties=species:S:1:pos:R:3:velocities:R:3:Z:I:1
H         4.02539616       5.22763889      14.04039959         0.00000000       0.00000000       0.00000000          1
H         1.97289539       4.96317294      12.16381061         0.00000000       0.00000000       0.00000000          1
H         3.69659985       5.85235408      10.15322078         0.00000000       0.00000000       0.00000000          1
H         3.30405586       7.40328819      12.44336641         0.00000000       0.00000000       0.00000000          1
H         4.41794632       3.67670789      11.75025210         0.00000000       0.00000000       0.00000000          1
H         5.74910538       6.11682791      12.02980716         0.00000000       0.00000000       0.00000000          1
6
pbc=[F, F, F] list_num_par=6 frozen=false iter=20000 energy=-1.26974174 Lattice="15.00000000 0.00000000 0.00000000 0.00000000 15.00000000 0.00000000 0.00000000 0.00000000 15.00000000" energy_frozen_part=0.00000000 Properties=species:S:1:pos:R:3:velocities:R:3:Z:I:1
H         4.03883102       5.24159253      14.01816676         0.00000000       0.00000000       0.00000000          1
H         1.99066867       4.95708182      12.13978165         0.00000000       0.00000000       0.00000000          1
H         3.71089336       5.85158111      10.12857435         0.00000000       0.00000000       0.00000000          1
H         3.30473468       7.40712664      12.41322201         0.00000000       0.00000000       0.00000000          1
H         4.44500017       3.68605044      11.73352649         0.00000000       0.00000000       0.00000000          1
H         5.75906258       6.13610301      12.00696317         0.00000000       0.00000000       0.00000000          1
6
pbc=[F, F, F] list_num_par=6 frozen=false iter=20000 energy=-1.26974174 Lattice="15.00000000 0.00000000 0.00000000 0.00000000 15.00000000 0.00000000 0.00000000 0.00000000 15.00000000" energy_frozen_part=0.00000000 Properties=species:S:1:pos:R:3:velocities:R:3:Z:I:1
H         4.02516661       5.22764347      14.04037633         0.00000000       0.00000000       0.00000000          1
H         1.97282982       4.96310851      12.16362329         0.00000000       0.00000000       0.00000000          1
H         3.69666770       5.85231681      10.15316129         0.00000000       0.00000000       0.00000000          1
H         3.30390978       7.40325920      12.44327045         0.00000000       0.00000000       0.00000000          1
H         4.41794055       3.67669806      11.75027353         0.00000000       0.00000000       0.00000000          1
H         5.74901638       6.11684514      12.02990787         0.00000000       0.00000000       0.00000000          1
6
pbc=[F, F, F] list_num_par=6 frozen=false iter=20000 energy=-1.26974174 Lattice="15.00000000 0.00000000 0.00000000 0.00000000 15.00000000 0.00000000 0.00000000 0.00000000 15.00000000" energy_frozen_part=0.00000000 Properties=species:S:1:pos:R:3:velocities:R:3:Z:I:1
H         4.03738060       5.24113024      14.01766307         0.00000000       0.00000000       0.00000000          1
H         1.98970536       4.95645554      12.13875836         0.00000000       0.00000000       0.00000000          1
H         3.71034999       5.85116425      10.12799637         0.00000000       0.00000000       0.00000000          1
H         3.30347638       7.40661829      12.41258008         0.00000000       0.00000000       0.00000000          1
H         4.44425044       3.68566469      11.73308624         0.00000000       0.00000000       0.00000000          1
H         5.75802596       6.13583468      12.00689987         0.00000000       0.00000000       0.00000000          1
6
pbc=[F, F, F] list_num_par=6 frozen=false iter=20000 energy=-1.26974174 Lattice="15.00000000 0.00000000 0.00000000 0.00000000 15.00000000 0.00000000 0.00000000 0.00000000 15.00000000" energy_frozen_part=0.00000000 Properties=species:S:1:pos:R:3:velocities:R:3:Z:I:1
H         4.03889976       5.24155429      14.01820955         0.00000000       0.00000000       0.00000000          1
H         1.99069689       4.95705211      12.13985554         0.00000000       0.00000000       0.00000000          1