6
pbc=[F, F, F] list_num_par=6 frozen=false iter=20000 energy=-1.26974174 Lattice="15.00000000 0.00000000 0.00000000 0.00000000 15.00000000 0.00000000 0.00000000 0.00000000 15.00000000" energy_frozen_part=0.00000000 Properties=species:S:1:pos:R:3:velocities:R:3:Z:I:1
H         1.87360441       6.13857996       0.93807307         0.00000000       0.00000000       0.00000000          1
H         1.08644569       6.79072370       3.53795694         0.00000000       0.00000000       0.00000000          1
H         3.06058461       4.85893248       3.11932054         0.00000000       0.00000000       0.00000000          1
H         4.53017721       6.68905705       1.60431583         0.00000000       0.00000000       0.00000000          1
H         2.55603677       8.62083591       2.02294557         0.00000000       0.00000000       0.00000000          1
H         3.74301640       7.34119656       4.20419992         0.00000000       0.00000000       0.00000000          1
6
pbc=[F, F, F] list_num_par=6 frozen=false iter=20000 energy=-1.26974174 Lattice="15.00000000 0.00000000 0.00000000 0.00000000 15.00000000 0.00000000 0.00000000 0.00000000 15.00000000" energy_frozen_part=0.00000000 Properties=species:S:1:pos:R:3:velocities:R:3:Z:I:1
H         2.00780334       5.37724591       1.36770748         0.00000000       0.00000000       0.00000000          1
H         0.36505033       6.88104576       3.05420322         0.00000000       0.00000000       0.00000000          1
H         2.74712928       5.79500554       4.02912659         0.00000000       0.00000000       0.00000000          1
H         4.16120200       7.05079844       1.97300269         0.00000000       0.00000000       0.00000000          1
H         1.77911240       8.13683495       0.99806553         0.00000000       0.00000000       0.00000000          1
H         2.51844910       8.55460261       3.65948364         0.00000000       0.00000000       0.00000000          1
6
pbc=[F, F, F] list_num_par=6 frozen=false iter=20000 energy=-1.26974174 Lattice="15.00000000 0.00000000 0.00000000 0.00000000 15.00000000 0.00000000 0.00000000 0.00000000 15.00000000" energy_frozen_part=0.00000000 Properties=species:S:1:pos:R:3:velocities:R:3:Z:I:1
H         1.87350204       6.13843495       0.93805964         0.00000000       0.00000000       0.00000000          1
H         1.08643157       6.79071867       3.53792971         0.00000000       0.00000000       0.00000000          1
H         3.06046112       4.85881387       3.11933377         0.00000000       0.00000000       0.00000000          1
H         4.53011783       6.68879293       1.60422220         0.00000000       0.00000000       0.00000000          1
H         2.55609244       8.62070073       2.02282277         0.00000000       0.00000000       0.00000000          1
H         3.74306027       7.34107712       4.20409499         0.00000000       0.00000000       0.00000000          1
6
pbc=[F, F, F] list_num_par=6 frozen=false iter=20000 energy=-1.26974174 Lattice="15.00000000 0.00000000 0.00000000 0.00000000 15.00000000 0.00000000 0.00000000 0.00000000 15.00000000" energy_frozen_part=0.00000000 Properties=species:S:1:pos:R:3:velocities:R:3:Z:I:1
H         1.87351108       6.13845192       0.93806010         0.00000000       0.00000000       0.00000000          1
H         1.08643622       6.79071064       3.53793316         0.00000000       0.00000000       0.00000000          1
H         3.06046830       4.85880686       3.11932788         0.00000000       0.00000000       0.00000000          1
H         4.53012971       6.68880882       1.60424767         0.00000000       0.00000000       0.00000000          1
H         2.55609350       8.62070807       2.02283576         0.00000000       0.00000000       0.00000000          1
H         3.74304391       7.34107073       4.20411626         0.00000000       0.00000000       0.00000000          1
6
pbc=[F, F, F] list_num_par=6 frozen=false iter=20000 energy=-1.26974174 Lattice="15.00000000 0.00000000 0.00000000 0.00000000 15.00000000 0.00000000 0.00000000 0.00000000 15.00000000" energy_frozen_part=0.00000000 Properties=species:S:1:pos:R:3:velocities:R:3:Z:I:1
H         1.87359524       6.13857195       0.93807941         0.00000000       0.00000000       0.00000000          1
H         1.08644519       6.79072887       3.53795418         0.00000000       0.00000000       0.00000000          1
H         3.06058008       4.85893272       3.11932616         0.00000000       0.00000000       0.00000000          1
H         4.53017320       6.68904934       1.60431691         0.00000000       0.00000000       0.00000000          1
H         2.55603070       8.62084243       2.02293798         0.00000000       0.00000000       0.00000000          1
H         3.74302029       7.34119883       4.20418906         0.00000000       0.00000000       0.00000000          1
6
pbc=[F, F, F] list_num_par=6 frozen=false iter=20000 energy=-1.26974174 Lattice="15.00000000 0.00000000 0.00000000 0.00000000 15.00000000 0.00000000 0.00000000 0.00000000 15.00000000" energy_frozen_part=0.00000000 Properties=species:S:1:pos:R:3:velocities:R:3:Z:I:1
H         2.00800712       5.37715113       1.36797080         0.00000000       0.00000000       0.00000000          1
H         0.36536694       6.88129662       3.05425744         0.00000000       0.00000000       0.00000000          1
H         2.74745733       5.79535975       4.02928231         0.00000000       0.00000000       0.00000000          1
H         4.16148276       7.05075035       1.97286991         0.00000000       0.00000000       0.00000000          1
H         1.77939323       8.13668178       0.99783581         0.00000000       0.00000000       0.00000000          1
H         2.51883806       8.55489218       3.65915937         0.00000000       0.00000000       0.00000000          1
6
pbc=[F, F, F] list_num_par=6 frozen=false iter=20000 energy=-1.26974174 Lattice="15.00000000 0.00000000 0.00000000 0.00000000 15.00000000 0.00000000 0.00000000 0.00000000 15.00000000" energy_frozen_part=0.00000000 Properties=species:S:1:pos:R:3:velocities:R:3:Z:I:1
H         2.00784454       5.37723392       1.36771710         0.00000000       0.00000000       0.00000000          1
H         0.36507095       6.88103643       3.05418849         0.00000000       0.00000000       0.00000000          1
H         2.74714667       5.79501590       4.02914486         0.00000000       0.00000000       0.00000000          1
H         4.16122887       7.05080275       1.97301940         0.00000000       0.00000000       0.00000000          1
H         1.77914917       8.13681859       0.99805575         0.00000000       0.00000000       0.00000000          1
H         2.51846175       8.55461079       3.65947476         0.00000000       0.00000000       0.00000000          1
6
pbc=[F, F, F] list_num_par=6 frozen=false iter=20000 energy=-1.26974174 Lattice="15.00000000 0.00000000 0.00000000 0.00000000 15.00000000 0.00000000 0.00000000 0.00000000 15.00000000" energy_frozen_part=0.00000000 Properties=species:S:1:pos:R:3:velocities:R:3:Z:I:1
H         2.00805897       5.37712563       1.36793650         0.00000000       0.00000000       0.00000000          1
H         0.36541986       6.88129631       3.05419859         0.00000000       0.00000000       0.00000000          1
H         2.74748884       5.79533852       4.02925949         0.00000000       0.00000000       0.00000000          1
H         4.16153874       7.05070692       1.97284688         0.00000000       0.00000000       0.00000000          1
H         1.77946493       8.13665974       0.99778599         0.00000000       0.00000000       0.00000000          1
H         2.51890215       8.55487339       3.65910715         0.00000000       0.00000000       0.00000000          1
6
pbc=[F, F, F] list_num_par=6 frozen=false iter=20000 energy=-1.26974174 Lattice="15.00000000 0.00000000 0.00000000 0.00000000 15.00000000 0.00000000 0.00000000 0.00000000 15.00000000" energy_frozen_part=0.00000000 Properties=species:S:1:pos:R:3:velocities:R:3:Z:I:1
H         1.87351076       6.13845668       0.93806412         0.00000000       0.00000000       0.00000000          1
H         1.08642779       6.79071156       3.53793807         0.00000000       0.00000000       0.00000000          1
H         3.06045937       4.85881540       3.11933908         0.00000000       0.00000000       0.00000000          1
H         4.53012331       6.68880196       1.60424839         0.00000000       0.00000000       0.00000000          1
H         2.55609122       8.62071169       2.02284878         0.00000000       0.00000000       0.00000000          1
H         3.74304509       7.34107248       4.20411571         0.00000000       0.00000000       0.00000000          1
6
pbc=[F, F, F] list_num_par=6 frozen=false iter=20000 energy=-1.26974174 Lattice="15.00000000 0.00000000 0.00000000 0.00000000 15.00000000 0.00000000 0.00000000 0.00000000 15.00000000" energy_frozen_part=0.00000000 Properties=species:S:1:pos:R:3:velocities:R:3:Z:I:1
H         1.87350837       6.13844124       0.93806523         0.00000000       0.00000000       0.00000000          1
H         1.08642784       6.79071286       3.53793782         0.00000000       0.00000000       0.00000000          1
H         3.06045847       4.85881310       3.11934588         0.00000000       0.00000000       0.00000000          1
H         4.53011952       6.68880332       1.60423679         0.00000000       0.00000000       0.00000000          1
H         2.55608361       8.62070625       2.02283034         0.00000000       0.00000000       0.00000000          1
H         3.74304265       7.34107967       4.20411183         0.00000000       0.00000000       0.00000000          1
6
pbc=[F, F, F] list_num_par=6 frozen=false iter=20000 energy=-1.26974174 Lattice="15.00000000 0.00000000 0.00000000 0.00000000 15.00000000 0.00000000 0.00000000 0.00000000 15.00000000" energy_frozen_part=0.00000000 Properties=species:S:1:pos:R:3:velocities:R:3:Z:I:1
H         1.87395733       6.14005474       0.93768057         0.00000000       0.00000000       0.00000000          1
H         1.08571491       6.79220724       3.53723223         0.00000000       0.00000000       0.00000000          1
H         3.05827549       4.85863642       3.11934405         0.00000000       0.00000000       0.00000000          1
H         4.53062733       6.68777360       1.60583608         0.00000000       0.00000000       0.00000000          1
H         2.55807400       8.62133741       2.02372117         0.00000000       0.00000000       0.00000000          1
H         3.74238268       7.33992098       4.20538624         0.00000000       0.00000000       0.00000000          1
6
pbc=[F, F, F] list_num_par=6 frozen=false iter=20000 energy=-1.26974174 Lattice="15.00000000 0.00000000 0.00000000 0.00000000 15.00000000 0.00000000 0.00000000 0.00000000 15.00000000" energy_frozen_part=0.00000000 Properties=species:S:1:pos:R:3:velocities:R:3:Z:I:1
H         1.87387356       6.14006970       0.93770366         0.00000000       0.00000000       0.00000000          1
H         1.08564887       6.79215847       3.53728350         0.00000000       0.00000000       0.00000000          1
H         3.05815494       4.85855916       3.11933208         0.00000000       0.00000000       0.00000000          1
H         4.53054464       6.68770766       1.60588171         0.00000000       0.00000000       0.00000000          1
H         2.55804122       8.62130924       2.02382331         0.00000000       0.00000000       0.00000000          1
H         3.74232172       7.33979975       4.20545067         0.00000000       0.00000000       0.00000000          1
6
pbc=[F, F, F] list_num_par=6 frozen=false iter=20000 energy=-1.26974174 Lattice="15.00000000 0.00000000 0.00000000 0.00000000 15.00000000 0.00000000 0.00000000 0.00000000 15.00000000" energy_frozen_part=0.00000000 Properties=species:S:1:pos:R:3:velocities:R:3:Z:I:1
H         2.00767725       5.37727551       1.36756245         0.00000000       0.00000000       0.00000000          1
H         0.36480566       6.88097931       3.05401434         0.00000000       0.00000000       0.00000000          1
H         2.74688438       5.79498640       4.02901533         0.00000000       0.00000000       0.00000000          1
H         4.16099515       7.05088712       1.97298350         0.00000000       0.00000000       0.00000000          1
H         1.77892400       8.13686619       0.99797405         0.00000000       0.00000000       0.00000000          1
H         2.51812366       8.55458441       3.65944001         0.00000000       0.00000000       0.00000000          1
6
pbc=[F, F, F] list_num_par=6 frozen=false iter=20000 energy=-1.26974174 Lattice="15.00000000 0.00000000 0.00000000 0.00000000 15.00000000 0.00000000 0.00000000 0.00000000 15.00000000" energy_frozen_part=0.00000000 Properties=species:S:1:pos:R:3:velocities:R:3:Z:I:1
H         2.00801219       5.37714425       1.36794947         0.00000000       0.00000000       0.00000000          1
H         0.36538411       6.88128409       3.05425655         0.00000000       0.00000000       0.00000000          1
H         2.74747160       5.79533222       4.02926742         0.00000000       0.00000000       0.00000000          1
H         4.16149974       7.05072171       1.97286571         0.00000000       0.00000000       0.00000000          1
H         1.77941056       8.13667799       0.99784938         0.00000000       0.00000000       0.00000000          1
H         2.51886768       8.55486134       3.65916187         0.00000000       0.00000000       0.00000000          1
6
pbc=[F, F, F] list_num_par=6 frozen=false iter=20000 energy=-1.26974174 Lattice="15.00000000 0.00000000 0.00000000 0.00000000 15.00000000 0.00000000 0.00000000 0.00000000 15.00000000" energy_frozen_part=0.00000000 Properties=species:S:1:pos:R:3:velocities:R:3:Z:I:1
H         2.00787182       5.37731981       1.36751403         0.00000000       0.00000000       0.00000000          1
H         0.36489326       6.88085457       3.05400544         0.00000000       0.00000000       0.00000000          1
H         2.74698649       5.79491258       4.02901879         0.00000000       0.00000000       0.00000000          1
H         4.16111315       7.05097976       1.97308870         0.00000000       0.00000000       0.00000000          1
H         1.77901300       8.13692658       0.99807637         0.00000000       0.00000000       0.00000000          1
H         2.51812312       8.55451911       3.65958011         0.00000000       0.00000000       0.00000000          1
6
pbc=[F, F, F] list_num_par=6 frozen=false iter=20000 energy=-1.26974174 Lattice="15.00000000 0.00000000 0.00000000 0.00000000 15.00000000 0.00000000 0.00000000 0.00000000 15.00000000" energy_frozen_part=0.00000000 Properties=species:S:1:pos:R:3:velocities:R:3:Z:I:1
H         2.00779627       5.37724383       1.36771007         0.00000000       0.00000000       0.00000000          1
H         0.36504085       6.88104515       3.05418850         0.00000000       0.00000000       0.00000000          1
H         2.74712201       5.79500638       4.02912707         0.00000000       0.00000000       0.00000000          1
H         4.16120091       7.05079663       1.97299623         0.00000000       0.00000000       0.00000000          1
H         1.77911777       8.13684090       0.99805983         0.00000000       0.00000000       0.00000000          1
H         2.51844500       8.55459237       3.65947603         0.00000000       0.00000000       0.00000000          1
6
pbc=[F, F, F] list_num_par=6 frozen=false iter=20000 energy=-1.26974174 Lattice="15.00000000 0.00000000 0.00000000 0.00000000 15.00000000 0.00000000 0.00000000 0.00000000 15.00000000" energy_frozen_part=0.00000000 Properties=species:S:1:pos:R:3:velocities:R:3:Z:I:1
H         2.00769447       5.37728929       1.36752230         0.00000000       0.00000000       0.00000000          1
H         0.36481479       6.88095450       3.05400267         0.00000000       0.00000000       0.00000000          1
H         2.74690071       5.79496956       4.02898319         0.00000000       0.00000000       0.00000000          1
H         4.16100667       7.05090117       1.97295588         0.00000000       0.00000000       0.00000000          1
H         1.77891295       8.13688268       0.99796797         0.00000000       0.00000000       0.00000000          1
H         2.51812553       8.55456336       3.65943453         0.00000000       0.00000000       0.00000000          1
6
pbc=[F, F, F] list_num_par=6 frozen=false iter=20000 energy=-1.26974174 Lattice="15.00000000 0.00000000 0.00000000 0.00000000 15.00000000 0.00000000 0.00000000 0.00000000 15.00000000" energy_frozen_part=0.00000000 Properties=species:S:1:pos:R:3:velocities:R:3:Z:I:1
H         2.00780389       5.37724789       1.36769551         0.00000000       0.00000000       0.00000000          1
H         0.36505387       6.88103817       3.05418874         0.00000000       0.00000000       0.00000000          1
H         2.74713165       5.79499562       4.02911980         0.00000000       0.00000000       0.00000000          1
H         4.16120518       7.05079423       1.97299374         0.00000000       0.00000000       0.00000000          1
H         1.77912332       8.13684219       0.99805528         0.00000000       0.00000000       0.00000000          1
H         2.51845024       8.55459595       3.65948036         0.00000000       0.00000000       0.00000000          1
6
pbc=[F, F, F] list_num_par=6 frozen=false iter=20000 energy=-1.26974174 Lattice="15.00000000 0.00000000 0.00000000 0.00000000 15.00000000 0.00000000 0.00000000 0.00000000 15.00000000" energy_frozen_part=0.00000000 Properties=species:S:1:pos:R:3:velocities:R:3:Z:I:1
H         2.00780809       5.37724791       1.36770243         0.00000000       0.00000000       0.00000000          1
H         0.36506536       6.88104878       3.05419571         0.00000000       0.00000000       0.00000000          1
H         2.74714279       5.79500254       4.02912142         0.00000000       0.00000000       0.00000000          1
H         4.16121543       7.05080037       1.97298634         0.00000000       0.00000000       0.00000000          1
H         1.77912993       8.13683546       0.99806357         0.00000000       0.00000000       0.00000000          1
H         2.51846933       8.55459421       3.65948538         0.00000000       0.00000000       0.00000000          1
6
pbc=[F, F, F] list_num_par=6 frozen=false iter=20000 energy=-1.26974174 Lattice="15.00000000 0.00000000 0.00000000 0.00000000 15.00000000 0.00000000 0.00000000 0.00000000 15.00000000" energy_frozen_part=0.00000000 Properties=species:S:1:pos:R:3:velocities:R:3:Z:I:1
H         2.00804464       5.37711308       1.36794729         0.00000000       0.00000000       0.00000000          1
H         0.36541654       6.88129226       3.05422471         0.00000000       0.00000000       0.00000000          1
H         2.74749297       5.79534165       4.02925989         0.00000000       0.00000000       0.00000000          1
H         4.16153907       7.05069631       1.97284695         0.00000000       0.00000000       0.00000000          1
H         1.77946186       8.13664786       0.99780811         0.00000000       0.00000000       0.00000000          1
H         2.51890476       8.55487011       3.65911570         0.00000000       0.00000000       0.00000000          1
6
pbc=[F, F, F] list_num_par=6 frozen=false iter=20000 energy=-1.26974174 Lattice="15.00000000 0.00000000 0.00000000 0.00000000 15.00000000 0.00000000 0.00000000 0.00000000 15.00000000" energy_frozen_part=0.00000000 Properties=species:S:1:pos:R:3:velocities:R:3:Z:I:1
H         2.00782192       5.37717972       1.36758773         0.00000000       0.00000000       0.00000000          1
H         0.36483062       6.88073005       3.05406398         0.00000000       0.00000000       0.00000000          1
H         2.74698855       5.79493087       4.02905733         0.00000000       0.00000000       0.00000000          1
H         4.16099874       7.05095564       1.97303442         0.00000000       0.00000000       0.00000000          1
H         1.77884173       8.13676256       0.99803522         0.00000000       0.00000000       0.00000000          1
H         2.51801411       8.55451377       3.65950029         0.00000000       0.00000000       0.00000000          1
6
pbc=[F, F, F] list_num_par=6 frozen=false iter=20000 energy=-1.26974174 Lattice="15.00000000 0.00000000 0.00000000 0.00000000 15.00000000 0.00000000 0.00000000 0.00000000 15.00000000" energy_frozen_part=0.00000000 Properties=species:S:1:pos:R:3:velocities:R:3:Z:I:1
H         2.00784186       5.37735908       1.36747462         0.00000000       0.00000000       0.00000000          1
H         0.36488619       6.88086569       3.05402664         0.00000000       0.00000000       0.00000000          1
H         2.74700068       5.79489944       4.02897575         0.00000000       0.00000000       0.00000000          1
H         4.16108960       7.05100704       1.97304628         0.00000000       0.00000000       0.00000000          1
H         1.77898491       8.13696916       0.99809591         0.00000000       0.00000000       0.00000000          1
H         2.51812841       8.55450948       3.65960006         0.00000000       0.00000000       0.00000000          1
6
pbc=[F, F, F] list_num_par=6 frozen=false iter=20000 energy=-1.26974174 Lattice="15.00000000 0.00000000 0.00000000 0.00000000 15.00000000 0.00000000 0.00000000 0.00000000 15.00000000" energy_frozen_part=0.00000000 Properties=species:S:1:pos:R:3:velocities:R:3:Z:I:1
H         1.87390304       6.14004947       0.93775295         0.00000000       0.00000000       0.00000000          1
H         1.08568865       6.79215316       3.53732402         0.00000000       0.00000000       0.00000000          1
H         3.05820079       4.85855937       3.11937552         0.00000000       0.00000000       0.00000000          1
H         4.53058596       6.68771001       1.60590050         0.00000000       0.00000000       0.00000000          1
H         2.55806516       8.62130120       2.02385453         0.00000000       0.00000000       0.00000000          1
H         3.74236903       7.33980628       4.20547115         0.00000000       0.00000000       0.00000000          1
6
pbc=[F, F, F] list_num_par=6 frozen=false iter=20000 energy=-1.26974174 Lattice="15.00000000 0.00000000 0.00000000 0.00000000 15.00000000 0.00000000 0.00000000 0.00000000 15.00000000" energy_frozen_part=0.00000000 Properties=species:S:1:pos:R:3:velocities:R:3:Z:I:1
H         1.87389474       6.14003395       0.93771768         0.00000000       0.00000000       0.00000000          1
H         1.08565849       6.79214105       3.53728471         0.00000000       0.00000000       0.00000000          1
H         3.05817758       4.85855074       3.11935492         0.00000000       0.00000000       0.00000000          1
H         4.53055849       6.68770185       1.60589004         0.00000000       0.00000000       0.00000000          1
H         2.55804059       8.62129252       2.02381852         0.00000000       0.00000000       0.00000000          1
H         3.74233431       7.33979970       4.20545206         0.00000000       0.00000000       0.00000000          1
6
pbc=[F, F, F] list_num_par=6 frozen=false iter=20000 energy=-1.26974174 Lattice="15.00000000 0.00000000 0.00000000 0.00000000 15.00000000 0.00000000 0.00000000 0.00000000 15.00000000" energy_frozen_part=0.00000000 Properties=species:S:1:pos:R:3:velocities:R:3:Z:I:1
H         2.00768574       5.37726535       1.36756438         0.00000000       0.00000000       0.00000000          1
H         0.36481799       6.88095540       3.05403140         0.00000000       0.00000000       0.00000000          1
H         2.74690679       5.79497465       4.02901877         0.00000000       0.00000000       0.00000000          1
H         4.16100097       7.05089133       1.97297893         0.00000000       0.00000000       0.00000000          1
H         1.77891133       8.13685986       0.99798369         0.00000000       0.00000000       0.00000000          1
H         2.51812689       8.55456803       3.65945035         0.00000000       0.00000000       0.00000000          1
6
pbc=[F, F, F] list_num_par=6 frozen=false iter=20000 energy=-1.26974174 Lattice="15.00000000 0.00000000 0.00000000 0.00000000 15.00000000 0.00000000 0.00000000 0.00000000 15.00000000" energy_frozen_part=0.00000000 Properties=species:S:1:pos:R:3:velocities:R:3:Z:I:1
H         2.00801876       5.37714099       1.36795828         0.00000000       0.00000000       0.00000000          1
H         0.36540091       6.88128892       3.05425534         0.00000000       0.00000000       0.00000000          1
H         2.74747854       5.79533702       4.02927488         0.00000000       0.00000000       0.00000000          1
H         4.16150602       7.05071988       1.97285564         0.00000000       0.00000000       0.00000000          1
H         1.77942045       8.13667567       0.99784453         0.00000000       0.00000000       0.00000000          1
H         2.51888592       8.55486889       3.65916026         0.00000000       0.00000000       0.00000000          1
6
pbc=[F, F, F] list_num_par=6 frozen=false iter=20000 energy=-1.26974174 Lattice="15.00000000 0.00000000 0.00000000 0.00000000 15.00000000 0.00000000 0.00000000 0.00000000 15.00000000" energy_frozen_part=0.00000000 Properties=species:S:1:pos:R:3:velocities:R:3:Z:I:1
H         2.00804100       5.37710909       1.36792992         0.00000000       0.00000000       0.00000000          1
H         0.36541340       6.88128271       3.05421088         0.00000000       0.00000000       0.00000000          1
H         2.74748908       5.79532488       4.02924910         0.00000000       0.00000000       0.00000000          1
H         4.16152484       7.05069992       1.97283516         0.00000000       0.00000000       0.00000000          1
H         1.77945036       8.13665067       0.99779805         0.00000000       0.00000000       0.00000000          1
H         2.51890069       8.55486160       3.65911977         0.00000000       0.00000000       0.00000000          1
6
pbc=[F, F, F] list_num_par=6 frozen=false iter=20000 energy=-1.26974174 Lattice="15.00000000 0.00000000 0.00000000 0.00000000 15.00000000 0.00000000 0.00000000 0.00000000 15.00000000" energy_frozen_part=0.00000000 Properties=species:S:1:pos:R:3:velocities:R:3:Z:I:1
H         2.00788328       5.37732660       1.36750176         0.00000000       0.00000000       0.00000000          1
H         0.36489425       6.88086582       3.05399524         0.00000000       0.00000000       0.00000000          1
H         2.74698024       5.79491449       4.02901263         0.00000000       0.00000000       0.00000000          1
H         4.16111528       7.05098036       1.97309228         0.00000000       0.00000000       0.00000000          1
H         1.77901985       8.13693783       0.99807907         0.00000000       0.00000000       0.00000000          1
H         2.51813463       8.55452287       3.65958261         0.00000000       0.00000000       0.00000000          1
6
pbc=[F, F, F] list_num_par=6 frozen=false iter=20000 energy=-1.26974174 Lattice="15.00000000 0.00000000 0.00000000 0.00000000 15.00000000 0.00000000 0.00000000 0.00000000 15.00000000" energy_frozen_part=0.00000000 Properties=species:S:1:pos:R:3:velocities:R:3:Z:I:1
H         1.87390552       6.14004063       0.93771394         0.00000000       0.00000000       0.00000000          1
H         1.08565852       6.79210741       3.53728470         0.00000000       0.00000000       0.00000000          1
H         3.05820405       4.85854801       3.11935074         0.00000000       0.00000000       0.00000000          1
H         4.53056386       6.68772626       1.60590024         0.00000000       0.00000000       0.00000000          1
H         2.55802217       8.62128813       2.02383334         0.00000000       0.00000000       0.00000000          1
H         3.74231747       7.33980137       4.20546871         0.00000000       0.00000000       0.00000000          1
6
pbc=[F, F, F] list_num_par=6 frozen=false iter=20000 energy=-1.26974174 Lattice="15.00000000 0.00000000 0.00000000 0.00000000 15.00000000 0.00000000 0.00000000 0.00000000 15.00000000" energy_frozen_part=0.00000000 Properties=species:S:1:pos:R:3:velocities:R:3:Z:I:1
H         2.00769009       5.37725173       1.36743175         0.00000000       0.00000000       0.00000000          1
H         0.36475817       6.88076695       3.05398644         0.00000000       0.00000000       0.00000000          1
H         2.74689872       5.79484556       4.02890309         0.00000000       0.00000000       0.00000000          1
H         4.16093089       7.05093029       1.97292417         0.00000000       0.00000000       0.00000000          1
H         1.77879009       8.13685288       0.99801060         0.00000000       0.00000000       0.00000000          1
H         2.51799295       8.55444868       3.65948673         0.00000000       0.00000000       0.00000000          1
6
pbc=[F, F, F] list_num_par=6 frozen=false iter=20000 energy=-1.26974174 Lattice="15.00000000 0.00000000 0.00000000 0.00000000 15.00000000 0.00000000 0.00000000 0.00000000 15.00000000" energy_frozen_part=0.00000000 Properties=species:S:1:pos:R:3:velocities:R:3:Z:I:1
H         1.87390939       6.14005768       0.93772988         0.00000000       0.00000000       0.00000000          1
H         1.08567384       6.79213044       3.53730296         0.00000000       0.00000000       0.00000000          1