6
pbc=[F, F, F] list_num_par=6 frozen=false iter=20000 energy=-1.26974174 Lattice="15.00000000 0.00000000 0.00000000 0.00000000 15.00000000 0.00000000 0.00000000 0.00000000 15.00000000" energy_frozen_part=0.00000000 Properties=species:S:1:pos:R:3:velocities:R:3:Z:I:1
H        10.99187656       7.77670941       5.67050953         0.00000000       0.00000000       0.00000000          1
H         8.80613797       6.05238854       5.43913306         0.00000000       0.00000000       0.00000000          1
H        10.53453451       8.70465727       3.07550862         0.00000000       0.00000000       0.00000000          1
H         8.48339396       8.78740814       4.97030718         0.00000000       0.00000000       0.00000000          1
H         8.34878733       6.98033727       2.84413097         0.00000000       0.00000000       0.00000000          1
H        10.85727837       5.96964274       3.54432733         0.00000000       0.00000000       0.00000000          1
6
pbc=[F, F, F] list_num_par=6 frozen=false iter=20000 energy=-1.26974174 Lattice="15.00000000 0.00000000 0.00000000 0.00000000 15.00000000 0.00000000 0.00000000 0.00000000 15.00000000" energy_frozen_part=0.00000000 Properties=species:S:1:pos:R:3:velocities:R:3:Z:I:1
H        10.99189926       7.77671200       5.67053753         0.00000000       0.00000000       0.00000000          1
H         8.80619018       6.05235258       5.43915777         0.00000000       0.00000000       0.00000000          1
H        10.53453158       8.70464732       3.07553064         0.00000000       0.00000000       0.00000000          1
H         8.48339691       8.78736665       4.97033419         0.00000000       0.00000000       0.00000000          1
H         8.34882268       6.98028967       2.84414851         0.00000000       0.00000000       0.00000000          1
H        10.85732219       5.96964027       3.54435361         0.00000000       0.00000000       0.00000000          1
6
pbc=[F, F, F] list_num_par=6 frozen=false iter=20000 energy=-1.26974174 Lattice="15.00000000 0.00000000 0.00000000 0.00000000 15.00000000 0.00000000 0.00000000 0.00000000 15.00000000" energy_frozen_part=0.00000000 Properties=species:S:1:pos:R:3:velocities:R:3:Z:I:1
H        10.99203782       7.77653361       5.67024183         0.00000000       0.00000000       0.00000000          1
H         8.80612293       6.05241155       5.43902936         0.00000000       0.00000000       0.00000000          1
H        10.53426137       8.70489739       3.07546390         0.00000000       0.00000000       0.00000000          1
H         8.48349516       8.78752819       4.97067737         0.00000000       0.00000000       0.00000000          1
H         8.34834780       6.98077673       2.84425062         0.00000000       0.00000000       0.00000000          1
H        10.85689118       5.96978717       3.54382757         0.00000000       0.00000000       0.00000000          1
6
pbc=[F, F, F] list_num_par=6 frozen=false iter=20000 energy=-1.26974174 Lattice="15.00000000 0.00000000 0.00000000 0.00000000 15.00000000 0.00000000 0.00000000 0.00000000 15.00000000" energy_frozen_part=0.00000000 Properties=species:S:1:pos:R:3:velocities:R:3:Z:I:1
H        10.99189706       7.77670537       5.67052812         0.00000000       0.00000000       0.00000000          1
H         8.80616435       6.05237136       5.43915449         0.00000000       0.00000000       0.00000000          1
H        10.53453415       8.70465746       3.07553487         0.00000000       0.00000000       0.00000000          1
H         8.48340153       8.78739698       4.97034784         0.00000000       0.00000000       0.00000000          1
H         8.34879651       6.98033121       2.84416223         0.00000000       0.00000000       0.00000000          1
H        10.85728540       5.96963126       3.54434025         0.00000000       0.00000000       0.00000000          1
6
pbc=[F, F, F] list_num_par=6 frozen=false iter=20000 energy=-1.26974174 Lattice="15.00000000 0.00000000 0.00000000 0.00000000 15.00000000 0.00000000 0.00000000 0.00000000 15.00000000" energy_frozen_part=0.00000000 Properties=species:S:1:pos:R:3:velocities:R:3:Z:I:1
H        10.99189005       7.77670634       5.67049906         0.00000000       0.00000000       0.00000000          1
H         8.80613917       6.05239608       5.43912922         0.00000000       0.00000000       0.00000000          1
H        10.53452876       8.70465198       3.07550546         0.00000000       0.00000000       0.00000000          1
H         8.48340078       8.78741148       4.97032209         0.00000000       0.00000000       0.00000000          1
H         8.34878482       6.98034258       2.84413016         0.00000000       0.00000000       0.00000000          1
H        10.85726637       5.96963336       3.54431562         0.00000000       0.00000000       0.00000000          1
6
pbc=[F, F, F] list_num_par=6 frozen=false iter=20000 energy=-1.26974174 Lattice="15.00000000 0.00000000 0.00000000 0.00000000 15.00000000 0.00000000 0.00000000 0.00000000 15.00000000" energy_frozen_part=0.00000000 Properties=species:S:1:pos:R:3:velocities:R:3:Z:I:1
H        10.99174254       7.77676775       5.67061966         0.00000000       0.00000000       0.00000000          1
H         8.80606364       6.05239005       5.43902210         0.00000000       0.00000000       0.00000000          1
H        10.53449532       8.70484664       3.07565141         0.00000000       0.00000000       0.00000000          1
H         8.48325688       8.78742200       4.97034974         0.00000000       0.00000000       0.00000000          1
H         8.34882596       6.98047121       2.84405594         0.00000000       0.00000000       0.00000000          1
H        10.85730573       5.96981354       3.54432330         0.00000000       0.00000000       0.00000000          1
6
pbc=[F, F, F] list_num_par=6 frozen=false iter=20000 energy=-1.26974174 Lattice="15.00000000 0.00000000 0.00000000 0.00000000 15.00000000 0.00000000 0.00000000 0.00000000 15.00000000" energy_frozen_part=0.00000000 Properties=species:S:1:pos:R:3:velocities:R:3:Z:I:1
H        10.99190494       7.77671009       5.67052562         0.00000000       0.00000000       0.00000000          1
H         8.80620522       6.05234773       5.43913469         0.00000000       0.00000000       0.00000000          1
H        10.53454485       8.70466226       3.07552921         0.00000000       0.00000000       0.00000000          1
H         8.48340341       8.78736536       4.97033390         0.00000000       0.00000000       0.00000000          1
H         8.34883282       6.98029817       2.84414442         0.00000000       0.00000000       0.00000000          1
H        10.85733585       5.96964300       3.54433110         0.00000000       0.00000000       0.00000000          1
6
pbc=[F, F, F] list_num_par=6 frozen=false iter=20000 energy=-1.26974174 Lattice="15.00000000 0.00000000 0.00000000 0.00000000 15.00000000 0.00000000 0.00000000 0.00000000 15.00000000" energy_frozen_part=0.00000000 Properties=species:S:1:pos:R:3:velocities:R:3:Z:I:1
H        10.99192624       7.77673771       5.67051819         0.00000000       0.00000000       0.00000000          1
H         8.80620207       6.05238290       5.43918777         0.00000000       0.00000000       0.00000000          1
H        10.53453015       8.70464463       3.07551684         0.00000000       0.00000000       0.00000000          1
H         8.48341866       8.78739076       4.97034150         0.00000000       0.00000000       0.00000000          1
H         8.34881533       6.98029179       2.84417474         0.00000000       0.00000000       0.00000000          1
H        10.85731550       5.96963430       3.54435789         0.00000000       0.00000000       0.00000000          1
6
pbc=[F, F, F] list_num_par=6 frozen=false iter=20000 energy=-1.26974174 Lattice="15.00000000 0.00000000 0.00000000 0.00000000 15.00000000 0.00000000 0.00000000 0.00000000 15.00000000" energy_frozen_part=0.00000000 Properties=species:S:1:pos:R:3:velocities:R:3:Z:I:1
H        10.99267312       7.77757423       5.67220269         0.00000000       0.00000000       0.00000000          1
H         8.80728785       6.05286573       5.44041914         0.00000000       0.00000000       0.00000000          1
H        10.53452522       8.70676222       3.07778876         0.00000000       0.00000000       0.00000000          1
H         8.48379811       8.78805578       4.97308864         0.00000000       0.00000000       0.00000000          1
H         8.34914419       6.98204962       2.84600185         0.00000000       0.00000000       0.00000000          1
H        10.85802303       5.97157501       3.54511440         0.00000000       0.00000000       0.00000000          1
6
pbc=[F, F, F] list_num_par=6 frozen=false iter=20000 energy=-1.26974174 Lattice="15.00000000 0.00000000 0.00000000 0.00000000 15.00000000 0.00000000 0.00000000 0.00000000 15.00000000" energy_frozen_part=0.00000000 Properties=species:S:1:pos:R:3:velocities:R:3:Z:I:1
H        10.99265181       7.77760560       5.67222133         0.00000000       0.00000000       0.00000000          1
H         8.80725594       6.05290127       5.44047715         0.00000000       0.00000000       0.00000000          1
H        10.53450477       8.70674791       3.07779177         0.00000000       0.00000000       0.00000000          1
H         8.48377857       8.78807481       4.97309506         0.00000000       0.00000000       0.00000000          1
H         8.34911008       6.98203606       2.84603910         0.00000000       0.00000000       0.00000000          1
H        10.85798922       5.97157073       3.54516514         0.00000000       0.00000000       0.00000000          1
6
pbc=[F, F, F] list_num_par=6 frozen=false iter=20000 energy=-1.26974174 Lattice="15.00000000 0.00000000 0.00000000 0.00000000 15.00000000 0.00000000 0.00000000 0.00000000 15.00000000" energy_frozen_part=0.00000000 Properties=species:S:1:pos:R:3:velocities:R:3:Z:I:1
H        10.99189855       7.77669701       5.67049603         0.00000000       0.00000000       0.00000000          1
H         8.80614722       6.05238423       5.43912974         0.00000000       0.00000000       0.00000000          1
H        10.53454027       8.70464088       3.07549713         0.00000000       0.00000000       0.00000000          1
H         8.48341132       8.78740328       4.97031860         0.00000000       0.00000000       0.00000000          1
H         8.34878930       6.98032897       2.84413113         0.00000000       0.00000000       0.00000000          1
H        10.85727192       5.96962027       3.54431082         0.00000000       0.00000000       0.00000000          1
6
pbc=[F, F, F] list_num_par=6 frozen=false iter=20000 energy=-1.26974174 Lattice="15.00000000 0.00000000 0.00000000 0.00000000 15.00000000 0.00000000 0.00000000 0.00000000 15.00000000" energy_frozen_part=0.00000000 Properties=species:S:1:pos:R:3:velocities:R:3:Z:I:1
H        10.99192358       7.77670432       5.67051324         0.00000000       0.00000000       0.00000000          1
H         8.80618361       6.05238833       5.43914599         0.00000000       0.00000000       0.00000000          1
H        10.53454793       8.70466554       3.07552672         0.00000000       0.00000000       0.00000000          1
H         8.48343271       8.78740422       4.97035320         0.00000000       0.00000000       0.00000000          1
H         8.34881020       6.98034311       2.84415413         0.00000000       0.00000000       0.00000000          1
H        10.85730050       5.96964334       3.54432131         0.00000000       0.00000000       0.00000000          1
6
pbc=[F, F, F] list_num_par=6 frozen=false iter=20000 energy=-1.26974174 Lattice="15.00000000 0.00000000 0.00000000 0.00000000 15.00000000 0.00000000 0.00000000 0.00000000 15.00000000" energy_frozen_part=0.00000000 Properties=species:S:1:pos:R:3:velocities:R:3:Z:I:1
H        10.99197699       7.77669521       5.67048377         0.00000000       0.00000000       0.00000000          1
H         8.80625248       6.05235331       5.43912772         0.00000000       0.00000000       0.00000000          1
H        10.53457545       8.70465591       3.07550428         0.00000000       0.00000000       0.00000000          1
H         8.48347209       8.78737411       4.97034011         0.00000000       0.00000000       0.00000000          1
H         8.34884778       6.98031914       2.84414452         0.00000000       0.00000000       0.00000000          1
H        10.85735209       5.96964183       3.54428624         0.00000000       0.00000000       0.00000000          1
6
pbc=[F, F, F] list_num_par=6 frozen=false iter=20000 energy=-1.26974174 Lattice="15.00000000 0.00000000 0.00000000 0.00000000 15.00000000 0.00000000 0.00000000 0.00000000 15.00000000" energy_frozen_part=0.00000000 Properties=species:S:1:pos:R:3:velocities:R:3:Z:I:1
H        10.99189445       7.77671095       5.67052204         0.00000000       0.00000000       0.00000000          1
H         8.80619000       6.05234669       5.43915808         0.00000000       0.00000000       0.00000000          1
H        10.53452409       8.70464621       3.07551980         0.00000000       0.00000000       0.00000000          1
H         8.48339303       8.78736154       4.97033867         0.00000000       0.00000000       0.00000000          1
H         8.34880667       6.98028855       2.84415985         0.00000000       0.00000000       0.00000000          1
H        10.85731563       5.96963387       3.54434686         0.00000000       0.00000000       0.00000000          1
6
pbc=[F, F, F] list_num_par=6 frozen=false iter=20000 energy=-1.26974174 Lattice="15.00000000 0.00000000 0.00000000 0.00000000 15.00000000 0.00000000 0.00000000 0.00000000 15.00000000" energy_frozen_part=0.00000000 Properties=species:S:1:pos:R:3:velocities:R:3:Z:I:1
H        10.99179621       7.77674548       5.67053653         0.00000000       0.00000000       0.00000000          1
H         8.80617189       6.05228868       5.43904986         0.00000000       0.00000000       0.00000000          1
H        10.53439038       8.70481970       3.07559251         0.00000000       0.00000000       0.00000000          1
H         8.48324761       8.78732174       4.97039584         0.00000000       0.00000000       0.00000000          1
H         8.34875560       6.98037010       2.84410431         0.00000000       0.00000000       0.00000000          1
H        10.85730808       5.96979823       3.54423791         0.00000000       0.00000000       0.00000000          1
6
pbc=[F, F, F] list_num_par=6 frozen=false iter=20000 energy=-1.26974174 Lattice="15.00000000 0.00000000 0.00000000 0.00000000 15.00000000 0.00000000 0.00000000 0.00000000 15.00000000" energy_frozen_part=0.00000000 Properties=species:S:1:pos:R:3:velocities:R:3:Z:I:1
H        10.99191626       7.77670818       5.67051443         0.00000000       0.00000000       0.00000000          1
H         8.80620582       6.05234032       5.43913792         0.00000000       0.00000000       0.00000000          1
H        10.53452666       8.70465343       3.07552543         0.00000000       0.00000000       0.00000000          1
H         8.48340381       8.78735330       4.97034344         0.00000000       0.00000000       0.00000000          1
H         8.34882108       6.98029224       2.84414053         0.00000000       0.00000000       0.00000000          1
H        10.85733041       5.96963821       3.54432596         0.00000000       0.00000000       0.00000000          1
6
pbc=[F, F, F] list_num_par=6 frozen=false iter=20000 energy=-1.26974174 Lattice="15.00000000 0.00000000 0.00000000 0.00000000 15.00000000 0.00000000 0.00000000 0.00000000 15.00000000" energy_frozen_part=0.00000000 Properties=species:S:1:pos:R:3:velocities:R:3:Z:I:1
H        10.99263882       7.77751538       5.67222894         0.00000000       0.00000000       0.00000000          1
H         8.80722452       6.05283565       5.44039888         0.00000000       0.00000000       0.00000000          1
H        10.53454764       8.70673213       3.07780876         0.00000000       0.00000000       0.00000000          1
H         8.48378909       8.78803196       4.97308287         0.00000000       0.00000000       0.00000000          1
H         8.34914340       6.98204650       2.84597343         0.00000000       0.00000000       0.00000000          1
H        10.85798919       5.97153345       3.54512878         0.00000000       0.00000000       0.00000000          1
6
pbc=[F, F, F] list_num_par=6 frozen=false iter=20000 energy=-1.26974174 Lattice="15.00000000 0.00000000 0.00000000 0.00000000 15.00000000 0.00000000 0.00000000 0.00000000 15.00000000" energy_frozen_part=0.00000000 Properties=species:S:1:pos:R:3:velocities:R:3:Z:I:1
H        10.99191184       7.77672150       5.67052648         0.00000000       0.00000000       0.00000000          1
H         8.80618232       6.05238050       5.43916880         0.00000000       0.00000000       0.00000000          1
H        10.53453040       8.70465316       3.07553256         0.00000000       0.00000000       0.00000000          1
H         8.48341166       8.78739755       4.97034316         0.00000000       0.00000000       0.00000000          1
H         8.34880375       6.98031042       2.84417092         0.00000000       0.00000000       0.00000000          1
H        10.85730448       5.96963554       3.54434933         0.00000000       0.00000000       0.00000000          1
6
pbc=[F, F, F] list_num_par=6 frozen=false iter=20000 energy=-1.26974174 Lattice="15.00000000 0.00000000 0.00000000 0.00000000 15.00000000 0.00000000 0.00000000 0.00000000 15.00000000" energy_frozen_part=0.00000000 Properties=species:S:1:pos:R:3:velocities:R:3:Z:I:1
H        10.99189294       7.77670933       5.67049556         0.00000000       0.00000000       0.00000000          1
H         8.80615186       6.05238434       5.43913469         0.00000000       0.00000000       0.00000000          1
H        10.53449603       8.70468249       3.07551803         0.00000000       0.00000000       0.00000000          1
H         8.48339753       8.78740683       4.97035936         0.00000000       0.00000000       0.00000000          1
H         8.34875108       6.98035595       2.84415526         0.00000000       0.00000000       0.00000000          1
H        10.85725413       5.96965977       3.54429215         0.00000000       0.00000000       0.00000000          1
6
pbc=[F, F, F] list_num_par=6 frozen=false iter=20000 energy=-1.26974174 Lattice="15.00000000 0.00000000 0.00000000 0.00000000 15.00000000 0.00000000 0.00000000 0.00000000 15.00000000" energy_frozen_part=0.00000000 Properties=species:S:1:pos:R:3:velocities:R:3:Z:I:1
H        10.99190704       7.77671144       5.67052647         0.00000000       0.00000000       0.00000000          1
H         8.80620087       6.05234603       5.43913872         0.00000000       0.00000000       0.00000000          1
H        10.53453779       8.70465223       3.07552851         0.00000000       0.00000000       0.00000000          1
H         8.48340603       8.78736279       4.97033234         0.00000000       0.00000000       0.00000000          1
H         8.34882931       6.98029334       2.84415054         0.00000000       0.00000000       0.00000000          1
H        10.85733796       5.96964069       3.54434032         0.00000000       0.00000000       0.00000000          1
6
pbc=[F, F, F] list_num_par=6 frozen=false iter=20000 energy=-1.26974174 Lattice="15.00000000 0.00000000 0.00000000 0.00000000 15.00000000 0.00000000 0.00000000 0.00000000 15.00000000" energy_frozen_part=0.00000000 Properties=species:S:1:pos:R:3:velocities:R:3:Z:I:1
H        10.99199385       7.77669077       5.67049720         0.00000000       0.00000000       0.00000000          1
H         8.80625810       6.05235479       5.43912994         0.00000000       0.00000000       0.00000000          1
H        10.53459494       8.70465573       3.07551406         0.00000000       0.00000000       0.00000000          1
H         8.48348864       8.78738251       4.97035534         0.00000000       0.00000000       0.00000000          1
H         8.34885728       6.98033432       2.84415511         0.00000000       0.00000000       0.00000000          1
H        10.85736191       5.96963553       3.54429469         0.00000000       0.00000000       0.00000000          1
6
pbc=[F, F, F] list_num_par=6 frozen=false iter=20000 energy=-1.26974174 Lattice="15.00000000 0.00000000 0.00000000 0.00000000 15.00000000 0.00000000 0.00000000 0.00000000 15.00000000" energy_frozen_part=0.00000000 Properties=species:S:1:pos:R:3:velocities:R:3:Z:I:1
H        10.99193003       7.77668344       5.67060360         0.00000000       0.00000000       0.00000000          1
H         8.80617324       6.05238685       5.43917337         0.00000000       0.00000000       0.00000000          1
H        10.53463385       8.70465839       3.07559775         0.00000000       0.00000000       0.00000000          1
H         8.48346368       8.78740886       4.97037548         0.00000000       0.00000000       0.00000000          1
H         8.34887550       6.98036136       2.84417415         0.00000000       0.00000000       0.00000000          1
H        10.85733713       5.96963122       3.54439912         0.00000000       0.00000000       0.00000000          1
6
pbc=[F, F, F] list_num_par=6 frozen=false iter=20000 energy=-1.26974174 Lattice="15.00000000 0.00000000 0.00000000 0.00000000 15.00000000 0.00000000 0.00000000 0.00000000 15.00000000" energy_frozen_part=0.00000000 Properties=species:S:1:pos:R:3:velocities:R:3:Z:I:1
H        10.99193603       7.77672521       5.67043575         0.00000000       0.00000000       0.00000000          1
H         8.80619657       6.05240122       5.43907938         0.00000000       0.00000000       0.00000000          1
H        10.53455848       8.70467438       3.07543611         0.00000000       0.00000000       0.00000000          1
H         8.48344685       8.78742240       4.97026330         0.00000000       0.00000000       0.00000000          1
H         8.34881846       6.98034338       2.84408474         0.00000000       0.00000000       0.00000000          1
H        10.85731183       5.96966186       3.54425279         0.00000000       0.00000000       0.00000000          1
6
pbc=[F, F, F] list_num_par=6 frozen=false iter=20000 energy=-1.26974174 Lattice="15.00000000 0.00000000 0.00000000 0.00000000 15.00000000 0.00000000 0.00000000 0.00000000 15.00000000" energy_frozen_part=0.00000000 Properties=species:S:1:pos:R:3:velocities:R:3:Z:I:1
H        10.99198746       7.77669804       5.67048414         0.00000000       0.00000000       0.00000000          1
H         8.80625019       6.05236139       5.43912452         0.00000000       0.00000000       0.00000000          1
H        10.53459628       8.70466110       3.07549891         0.00000000       0.00000000       0.00000000          1
H         8.48348330       8.78737701       4.97033905         0.00000000       0.00000000       0.00000000          1
H         8.34886072       6.98032860       2.84413679         0.00000000       0.00000000       0.00000000          1
H        10.85735818       5.96963967       3.54429166         0.00000000       0.00000000       0.00000000          1
6
pbc=[F, F, F] list_num_par=6 frozen=false iter=20000 energy=-1.26974174 Lattice="15.00000000 0.00000000 0.00000000 0.00000000 15.00000000 0.00000000 0.00000000 0.00000000 15.00000000" energy_frozen_part=0.00000000 Properties=species:S:1:pos:R:3:velocities:R:3:Z:I:1
H        10.99264809       7.77760877       5.67221160         0.00000000       0.00000000       0.00000000          1
H         8.80724872       6.05290498       5.44047366         0.00000000       0.00000000       0.00000000          1
H        10.53450454       8.70674876       3.07777890         0.00000000       0.00000000       0.00000000          1
H         8.48377552       8.78808055       4.97308252         0.00000000       0.00000000       0.00000000          1
H         8.34910600       6.98203325       2.84603364         0.00000000       0.00000000       0.00000000          1
H        10.85797277       5.97156798       3.54516160         0.00000000       0.00000000       0.00000000          1
6
pbc=[F, F, F] list_num_par=6 frozen=false iter=20000 energy=-1.26974174 Lattice="15.00000000 0.00000000 0.00000000 0.00000000 15.00000000 0.00000000 0.00000000 0.00000000 15.00000000" energy_frozen_part=0.00000000 Properties=species:S:1:pos:R:3:velocities:R:3:Z:I:1
H        10.99262740       7.77752512       5.67224573         0.00000000       0.00000000       0.00000000          1
H         8.80722290       6.05284340       5.44041714         0.00000000       0.00000000       0.00000000          1
H        10.53454595       8.70671682       3.07782109         0.00000000       0.00000000       0.00000000          1
H         8.48378053       8.78803233       4.97308055         0.00000000       0.00000000       0.00000000          1
H         8.34914312       6.98202336       2.84599417         0.00000000       0.00000000       0.00000000          1
H        10.85799332       5.97152467       3.54515152         0.00000000       0.00000000       0.00000000          1
6
pbc=[F, F, F] list_num_par=6 frozen=false iter=20000 energy=-1.26974174 Lattice="15.00000000 0.00000000 0.00000000 0.00000000 15.00000000 0.00000000 0.00000000 0.00000000 15.00000000" energy_frozen_part=0.00000000 Properties=species:S:1:pos:R:3:velocities:R:3:Z:I:1
H        10.99189063       7.77670534       5.67050668         0.00000000       0.00000000       0.00000000          1
H         8.80613997       6.05239111       5.43913295         0.00000000       0.00000000       0.00000000          1
H        10.53452923       8.70464648       3.07550067         0.00000000       0.00000000       0.00000000          1
H         8.48340307       8.78741181       4.97031147         0.00000000       0.00000000       0.00000000          1
H         8.34878299       6.98033024       2.84413606         0.00000000       0.00000000       0.00000000          1
H        10.85727285       5.96963030       3.54431969         0.00000000       0.00000000       0.00000000          1
6
pbc=[F, F, F] list_num_par=6 frozen=false iter=20000 energy=-1.26974174 Lattice="15.00000000 0.00000000 0.00000000 0.00000000 15.00000000 0.00000000 0.00000000 0.00000000 15.00000000" energy_frozen_part=0.00000000 Properties=species:S:1:pos:R:3:velocities:R:3:Z:I:1
H        10.99189207       7.77670308       5.67050243         0.00000000       0.00000000       0.00000000          1
H         8.80613853       6.05239553       5.43913237         0.00000000       0.00000000       0.00000000          1
H        10.53454736       8.70465360       3.07550181         0.00000000       0.00000000       0.00000000          1
H         8.48341335       8.78742036       4.97031514         0.00000000       0.00000000       0.00000000          1
H         8.34878495       6.98035101       2.84412943         0.00000000       0.00000000       0.00000000          1
H        10.85726207       5.96962574       3.54431990         0.00000000       0.00000000       0.00000000          1
6
pbc=[F, F, F] list_num_par=6 frozen=false iter=20000 energy=-1.26974174 Lattice="15.00000000 0.00000000 0.00000000 0.00000000 15.00000000 0.00000000 0.00000000 0.00000000 15.00000000" energy_frozen_part=0.00000000 Properties=species:S:1:pos:R:3:velocities:R:3:Z:I:1
H        10.99193851       7.77672532       5.67044138         0.00000000       0.00000000       0.00000000          1
H         8.80619728       6.05240105       5.43907186         0.00000000       0.00000000       0.00000000          1
H        10.53456474       8.70468509       3.07544442         0.00000000       0.00000000       0.00000000          1
H         8.48344712       8.78742230       4.97027032         0.00000000       0.00000000       0.00000000          1
H         8.34882360       6.98036219       2.84408764         0.00000000       0.00000000       0.00000000          1
H        10.85731464       5.96966405       3.54425121         0.00000000       0.00000000       0.00000000          1
6
pbc=[F, F, F] list_num_par=6 frozen=false iter=20000 energy=-1.26974174 Lattice="15.00000000 0.00000000 0.00000000 0.00000000 15.00000000 0.00000000 0.00000000 0.00000000 15.00000000" energy_frozen_part=0.00000000 Properties=species:S:1:pos:R:3:velocities:R:3:Z:I:1
H        10.99199601       7.77668937       5.67047223         0.00000000       0.00000000       0.00000000          1
H         8.80624200       6.05238428       5.43912174         0.00000000       0.00000000       0.00000000          1
H        10.53461708       8.70464515       3.07548591         0.00000000       0.00000000       0.00000000          1
H         8.48350645       8.78740012       4.97031451         0.00000000       0.00000000       0.00000000          1
H         8.34886855       6.98033239       2.84412357         0.00000000       0.00000000       0.00000000          1
H        10.85735055       5.96961759       3.54429033         0.00000000       0.00000000       0.00000000          1
6
pbc=[F, F, F] list_num_par=6 frozen=false iter=20000 energy=-1.26974174 Lattice="15.00000000 0.00000000 0.00000000 0.00000000 15.00000000 0.00000000 0.00000000 0.00000000 15.00000000" energy_frozen_part=0.00000000 Properties=species:S:1:pos:R:3:velocities:R:3:Z:I:1
H        10.99198332       7.77668313       5.67047669         0.00000000       0.00000000       0.00000000          1
H         8.80623132       6.05237495       5.43911120         0.00000000       0.00000000       0.00000000          1