6
pbc=[F, F, F] list_num_par=6 frozen=false iter=9 energy=174.97686399 Lattice="15.00000000 0.00000000 0.00000000 0.00000000 15.00000000 0.00000000 0.00000000 0.00000000 15.00000000" energy_frozen_part=0.00000000 Properties=species:S:1:pos:R:3:velocities:R:3:Z:I:1
H         0.70891443       9.45975112       8.05999353         0.00000000       0.00000000       0.00000000          1
H        11.36599952       9.19450548      11.41559314         0.00000000       0.00000000       0.00000000          1
H         6.54835204       7.63228603       3.93125539         0.00000000       0.00000000       0.00000000          1
H         8.43887320       3.55325166       2.15835928         0.00000000       0.00000000       0.00000000          1
H         7.87847895       3.12835407       0.83328622         0.00000000       0.00000000       0.00000000          1
H         7.54159324       9.03816617      14.68342451         0.00000000       0.00000000       0.00000000          1
6
pbc=[F, F, F] list_num_par=6 frozen=false iter=19 energy=8.96290089 Lattice="15.00000000 0.00000000 0.00000000 0.00000000 15.00000000 0.00000000 0.00000000 0.00000000 15.00000000" energy_frozen_part=0.00000000 Properties=species:S:1:pos:R:3:velocities:R:3:Z:I:1
H        12.30978197       7.82798751      11.30801268         0.00000000       0.00000000       0.00000000          1
H         6.58090550      14.38040781      14.25291372         0.00000000       0.00000000       0.00000000          1
H         5.96626215       4.11480777      13.64213700         0.00000000       0.00000000       0.00000000          1
H        11.19793442       1.09827615       5.05399163         0.00000000       0.00000000       0.00000000          1
H         2.76521338      10.25715922       4.27453658         0.00000000       0.00000000       0.00000000          1
H         7.60228676       4.26998636      12.69715478         0.00000000       0.00000000       0.00000000          1
6
pbc=[F, F, F] list_num_par=6 frozen=false iter=29 energy=0.20029031 Lattice="15.00000000 0.00000000 0.00000000 0.00000000 15.00000000 0.00000000 0.00000000 0.00000000 15.00000000" energy_frozen_part=0.00000000 Properties=species:S:1:pos:R:3:velocities:R:3:Z:I:1
H         7.73366232       5.72980555       3.31221403         0.00000000       0.00000000       0.00000000          1
H        13.58096646      10.73538798       0.12267691         0.00000000       0.00000000       0.00000000          1
H         2.13247842       6.19979478       8.60743492         0.00000000       0.00000000       0.00000000          1
H         2.44297665      14.19954168       4.36158197         0.00000000       0.00000000       0.00000000          1
H        11.12605542       2.28660624      11.28047846         0.00000000       0.00000000       0.00000000          1
H         1.61905994       7.90549659      10.17514558         0.00000000       0.00000000       0.00000000          1
6
pbc=[F, F, F] list_num_par=6 frozen=false iter=39 energy=-0.00411721 Lattice="15.00000000 0.00000000 0.00000000 0.00000000 15.00000000 0.00000000 0.00000000 0.00000000 15.00000000" energy_frozen_part=0.00000000 Properties=species:S:1:pos:R:3:velocities:R:3:Z:I:1
H        13.97004953       3.23269088       1.57227266         0.00000000       0.00000000       0.00000000          1
H         1.19000040       8.72995122      13.97885015         0.00000000       0.00000000       0.00000000          1
H         6.47570454       0.43415069       5.47028914         0.00000000       0.00000000       0.00000000          1
H        10.41171953       9.99802252       4.99991141         0.00000000       0.00000000       0.00000000          1
H         4.90443607       7.93801357       6.30842493         0.00000000       0.00000000       0.00000000          1
H         9.82252596       5.88854519      11.03172497         0.00000000       0.00000000       0.00000000          1
6
pbc=[F, F, F] list_num_par=6 frozen=false iter=49 energy=-0.00796255 Lattice="15.00000000 0.00000000 0.00000000 0.00000000 15.00000000 0.00000000 0.00000000 0.00000000 15.00000000" energy_frozen_part=0.00000000 Properties=species:S:1:pos:R:3:velocities:R:3:Z:I:1
H        11.76155045       8.04427502       4.71904086         0.00000000       0.00000000       0.00000000          1
H         9.76335587       0.20059267       3.76865792         0.00000000       0.00000000       0.00000000          1
H        10.91273042       3.39440517      13.37075665         0.00000000       0.00000000       0.00000000          1
H         6.36442103       5.60703444       2.32924299         0.00000000       0.00000000       0.00000000          1
H         6.41980634      11.87830677       6.83905483         0.00000000       0.00000000       0.00000000          1
H        14.93828277       5.36270968       8.55869926         0.00000000       0.00000000       0.00000000          1
6
pbc=[F, F, F] list_num_par=6 frozen=false iter=59 energy=-0.01322422 Lattice="15.00000000 0.00000000 0.00000000 0.00000000 15.00000000 0.00000000 0.00000000 0.00000000 15.00000000" energy_frozen_part=0.00000000 Properties=species:S:1:pos:R:3:velocities:R:3:Z:I:1
H         9.96230620      11.89905684       3.38549238         0.00000000       0.00000000       0.00000000          1
H         2.89083531       9.57768149       2.44808261         0.00000000       0.00000000       0.00000000          1
H        14.73283682       7.25510561       3.17017010         0.00000000       0.00000000       0.00000000          1
H        12.46256615      10.05939909       8.35958027         0.00000000       0.00000000       0.00000000          1
H         1.84544693       4.96542862       0.02156772         0.00000000       0.00000000       0.00000000          1
H        10.06179471      11.89204047      12.83304178         0.00000000       0.00000000       0.00000000          1
6
pbc=[F, F, F] list_num_par=6 frozen=false iter=69 energy=-0.01624850 Lattice="15.00000000 0.00000000 0.00000000 0.00000000 15.00000000 0.00000000 0.00000000 0.00000000 15.00000000" energy_frozen_part=0.00000000 Properties=species:S:1:pos:R:3:velocities:R:3:Z:I:1
H         0.80581668       3.12963809       6.78522349         0.00000000       0.00000000       0.00000000          1
H         7.62535302       2.73732107       8.26450842         0.00000000       0.00000000       0.00000000          1
H         5.22740304       7.45668771       6.39882483         0.00000000       0.00000000       0.00000000          1
H        11.24083536      10.62549025      12.48365450         0.00000000       0.00000000       0.00000000          1
H         8.78917499      13.81083293      10.16447649         0.00000000       0.00000000       0.00000000          1
H        13.99330316       1.49912288       9.18385870         0.00000000       0.00000000       0.00000000          1
6
pbc=[F, F, F] list_num_par=6 frozen=false iter=79 energy=-0.01913254 Lattice="15.00000000 0.00000000 0.00000000 0.00000000 15.00000000 0.00000000 0.00000000 0.00000000 15.00000000" energy_frozen_part=0.00000000 Properties=species:S:1:pos:R:3:velocities:R:3:Z:I:1
H         0.76234954      13.04500898       9.85380763         0.00000000       0.00000000       0.00000000          1
H        14.64131840      14.93507817       3.69975467         0.00000000       0.00000000       0.00000000          1
H         5.29803869      10.37059050       2.38042104         0.00000000       0.00000000       0.00000000          1
H         1.40935416      10.28033480       6.63496599         0.00000000       0.00000000       0.00000000          1
H         0.68537812       4.28422427       4.50037125         0.00000000       0.00000000       0.00000000          1
H        13.12437378       7.40254717      13.51263922         0.00000000       0.00000000       0.00000000          1
6
pbc=[F, F, F] list_num_par=6 frozen=false iter=89 energy=-0.02537008 Lattice="15.00000000 0.00000000 0.00000000 0.00000000 15.00000000 0.00000000 0.00000000 0.00000000 15.00000000" energy_frozen_part=0.00000000 Properties=species:S:1:pos:R:3:velocities:R:3:Z:I:1
H         4.57994797       5.70357050      14.27395725         0.00000000       0.00000000       0.00000000          1
H        14.08392407       0.37490405      11.39196892         0.00000000       0.00000000       0.00000000          1
H         4.83358978       2.01394591       1.17777403         0.00000000       0.00000000       0.00000000          1
H         2.06484338       2.54802454      13.14855798         0.00000000       0.00000000       0.00000000          1
H         9.72006939       4.84535614      12.16760608         0.00000000       0.00000000       0.00000000          1
H         2.82778819       6.04552583       8.15378527         0.00000000       0.00000000       0.00000000          1
6
pbc=[F, F, F] list_num_par=6 frozen=false iter=99 energy=-0.03102439 Lattice="15.00000000 0.00000000 0.00000000 0.00000000 15.00000000 0.00000000 0.00000000 0.00000000 15.00000000" energy_frozen_part=0.00000000 Properties=species:S:1:pos:R:3:velocities:R:3:Z:I:1
H         3.32992139       5.51204199       8.19584847         0.00000000       0.00000000       0.00000000          1
H         5.07899633       1.68897631       7.66529491         0.00000000       0.00000000       0.00000000          1
H        14.87222029      11.95125968      11.18495261         0.00000000       0.00000000       0.00000000          1
H        11.54598747       9.17242859      12.35989111         0.00000000       0.00000000       0.00000000          1
H        14.00632684       7.99479901       1.80944823         0.00000000       0.00000000       0.00000000          1
H        12.36046688      12.94917774       3.72929206         0.00000000       0.00000000       0.00000000          1
6
pbc=[F, F, F] list_num_par=6 frozen=false iter=109 energy=-0.03416966 Lattice="15.00000000 0.00000000 0.00000000 0.00000000 15.00000000 0.00000000 0.00000000 0.00000000 15.00000000" energy_frozen_part=0.00000000 Properties=species:S:1:pos:R:3:velocities:R:3:Z:I:1
H        11.46780241       5.10753384      10.56958237         0.00000000       0.00000000       0.00000000          1
H        12.12507877      10.63404845       2.29734412         0.00000000       0.00000000       0.00000000          1
H         2.08786537       3.21983295       1.93586199         0.00000000       0.00000000       0.00000000          1
H         0.21643369       6.14244139       0.32551627         0.00000000       0.00000000       0.00000000          1
H         2.54942565       8.64464777       4.58108885         0.00000000       0.00000000       0.00000000          1
H         4.25397992       2.38687472      14.74355107         0.00000000       0.00000000       0.00000000          1
6
pbc=[F, F, F] list_num_par=6 frozen=false iter=119 energy=-0.03960999 Lattice="15.00000000 0.00000000 0.00000000 0.00000000 15.00000000 0.00000000 0.00000000 0.00000000 15.00000000" energy_frozen_part=0.00000000 Properties=species:S:1:pos:R:3:velocities:R:3:Z:I:1
H         6.97117558       2.71343081       3.16648417         0.00000000       0.00000000       0.00000000          1
H        13.43025333       7.64637464       8.47510766         0.00000000       0.00000000       0.00000000          1
H         1.64428563       2.05511716       7.24294459         0.00000000       0.00000000       0.00000000          1
H         2.65437175       1.67242690      10.75707809         0.00000000       0.00000000       0.00000000          1
H         0.53278381       0.21327377       1.75093330         0.00000000       0.00000000       0.00000000          1
H         9.39799399      14.69079818       3.68698494         0.00000000       0.00000000       0.00000000          1
6
pbc=[F, F, F] list_num_par=6 frozen=false iter=129 energy=-0.04541072 Lattice="15.00000000 0.00000000 0.00000000 0.00000000 15.00000000 0.00000000 0.00000000 0.00000000 15.00000000" energy_frozen_part=0.00000000 Properties=species:S:1:pos:R:3:velocities:R:3:Z:I:1
H         0.77113293       4.77127424       9.81275524         0.00000000       0.00000000       0.00000000          1
H         2.86825007       7.77242418       6.48910436         0.00000000       0.00000000       0.00000000          1
H         4.16272448       1.39674390       7.76590078         0.00000000       0.00000000       0.00000000          1
H         5.29522776       1.42885047      12.20538370         0.00000000       0.00000000       0.00000000          1
H        14.68459075       5.84653238       4.16110491         0.00000000       0.00000000       0.00000000          1
H        12.52291581       9.25494354       3.97065711         0.00000000       0.00000000       0.00000000          1
6
pbc=[F, F, F] list_num_par=6 frozen=false iter=139 energy=-0.04830733 Lattice="15.00000000 0.00000000 0.00000000 0.00000000 15.00000000 0.00000000 0.00000000 0.00000000 15.00000000" energy_frozen_part=0.00000000 Properties=species:S:1:pos:R:3:velocities:R:3:Z:I:1
H        14.74174887      14.51875797       1.32793225         0.00000000       0.00000000       0.00000000          1
H         7.85378303      10.84292038      12.74652908         0.00000000       0.00000000       0.00000000          1
H         6.78715336       4.45693471       0.13805708         0.00000000       0.00000000       0.00000000          1
H        10.60501754      10.98087817       4.13286511         0.00000000       0.00000000       0.00000000          1
H         0.29695115       6.48047230      13.39314460         0.00000000       0.00000000       0.00000000          1
H         8.08251393       3.02461882       3.05597157         0.00000000       0.00000000       0.00000000          1
6
pbc=[F, F, F] list_num_par=6 frozen=false iter=149 energy=-0.05454263 Lattice="15.00000000 0.00000000 0.00000000 0.00000000 15.00000000 0.00000000 0.00000000 0.00000000 15.00000000" energy_frozen_part=0.00000000 Properties=species:S:1:pos:R:3:velocities:R:3:Z:I:1
H        11.10986394       7.01063913      13.01039711         0.00000000       0.00000000       0.00000000          1
H        14.08226121       6.37840431       1.13627112         0.00000000       0.00000000       0.00000000          1
H         2.83556027       2.15876125       4.69527141         0.00000000       0.00000000       0.00000000          1
H         4.10202642       4.82391762       2.50609408         0.00000000       0.00000000       0.00000000          1
H         5.32460806       4.33421719       7.93217982         0.00000000       0.00000000       0.00000000          1
H         4.03747692       5.90962963      12.63719457         0.00000000       0.00000000       0.00000000          1
6
pbc=[F, F, F] list_num_par=6 frozen=false iter=159 energy=-0.05873346 Lattice="15.00000000 0.00000000 0.00000000 0.00000000 15.00000000 0.00000000 0.00000000 0.00000000 15.00000000" energy_frozen_part=0.00000000 Properties=species:S:1:pos:R:3:velocities:R:3:Z:I:1
H         7.77893288      10.52546219       6.62517290         0.00000000       0.00000000       0.00000000          1
H         7.69151463       3.78228023       2.15267762         0.00000000       0.00000000       0.00000000          1
H         7.26244220      12.88437909       3.84889961         0.00000000       0.00000000       0.00000000          1
H         0.51762933       4.56880449       4.42457340         0.00000000       0.00000000       0.00000000          1
H         4.85721244       1.40878256       4.03328724         0.00000000       0.00000000       0.00000000          1
H        14.37931875      13.31942047       1.48098111         0.00000000       0.00000000       0.00000000          1
6
pbc=[F, F, F] list_num_par=6 frozen=false iter=169 energy=-0.06325261 Lattice="15.00000000 0.00000000 0.00000000 0.00000000 15.00000000 0.00000000 0.00000000 0.00000000 15.00000000" energy_frozen_part=0.00000000 Properties=species:S:1:pos:R:3:velocities:R:3:Z:I:1
H         9.33296293       0.12507471       1.29255545         0.00000000       0.00000000       0.00000000          1
H         9.05934998      13.23241096      12.45519328         0.00000000       0.00000000       0.00000000          1
H         1.69151396       6.22044749       4.33065880         0.00000000       0.00000000       0.00000000          1
H        10.44961464       9.17594036       0.37124186         0.00000000       0.00000000       0.00000000          1
H         3.01518964       9.27048238       7.57186171         0.00000000       0.00000000       0.00000000          1
H         3.44119017       3.60438603       3.01753802         0.00000000       0.00000000       0.00000000          1
6
pbc=[F, F, F] list_num_par=6 frozen=false iter=179 energy=-0.06938137 Lattice="15.00000000 0.00000000 0.00000000 0.00000000 15.00000000 0.00000000 0.00000000 0.00000000 15.00000000" energy_frozen_part=0.00000000 Properties=species:S:1:pos:R:3:velocities:R:3:Z:I:1
H         4.15790021       9.55388285      13.54448936         0.00000000       0.00000000       0.00000000          1
H         7.34512521      13.43254804      11.72062370         0.00000000       0.00000000       0.00000000          1
H        13.59120297       0.99220963      10.50312067         0.00000000       0.00000000       0.00000000          1
H         6.80503051       9.00698413      11.37797957         0.00000000       0.00000000       0.00000000          1
H         6.81487493       0.57873695      10.26099142         0.00000000       0.00000000       0.00000000          1
H         3.91222199      14.30026941       7.41803079         0.00000000       0.00000000       0.00000000          1
6
pbc=[F, F, F] list_num_par=6 frozen=false iter=189 energy=-0.07344648 Lattice="15.00000000 0.00000000 0.00000000 0.00000000 15.00000000 0.00000000 0.00000000 0.00000000 15.00000000" energy_frozen_part=0.00000000 Properties=species:S:1:pos:R:3:velocities:R:3:Z:I:1
H         2.02345076      12.19515787      12.04836274         0.00000000       0.00000000       0.00000000          1
H        11.35890816      11.24267431      11.67102860         0.00000000       0.00000000       0.00000000          1
H         0.78379306       8.42019835      11.48677500         0.00000000       0.00000000       0.00000000          1
H         6.15061968       9.65272853       5.13628418         0.00000000       0.00000000       0.00000000          1
H         8.82681269      14.64830779      10.31903511         0.00000000       0.00000000       0.00000000          1
H        11.15262705      11.16369323       7.85340304         0.00000000       0.00000000       0.00000000          1
6
pbc=[F, F, F] list_num_par=6 frozen=false iter=199 energy=-0.07929164 Lattice="15.00000000 0.00000000 0.00000000 0.00000000 15.00000000 0.00000000 0.00000000 0.00000000 15.00000000" energy_frozen_part=0.00000000 Properties=species:S:1:pos:R:3:velocities:R:3:Z:I:1
H         1.99263277       7.56568933       9.58810822         0.00000000       0.00000000       0.00000000          1
H         7.49964496      13.43729306       5.75497033         0.00000000       0.00000000       0.00000000          1
H         0.40585160       3.92712182       2.69595755         0.00000000       0.00000000       0.00000000          1
H         6.34432499       0.78691344       9.59612607         0.00000000       0.00000000       0.00000000          1
H         1.39770957       6.02970874      12.35043569         0.00000000       0.00000000       0.00000000          1
H        10.73268200       0.05004657      10.87352332         0.00000000       0.00000000       0.00000000          1
6
pbc=[F, F, F] list_num_par=6 frozen=false iter=209 energy=-0.08354983 Lattice="15.00000000 0.00000000 0.00000000 0.00000000 15.00000000 0.00000000 0.00000000 0.00000000 15.00000000" energy_frozen_part=0.00000000 Properties=species:S:1:pos:R:3:velocities:R:3:Z:I:1
H         0.67359583       4.42269059       9.97849950         0.00000000       0.00000000       0.00000000          1
H         2.67604187       8.67638821       7.17011502         0.00000000       0.00000000       0.00000000          1
H         4.35268557       1.50048118       7.69373665         0.00000000       0.00000000       0.00000000          1
H         4.67377942       2.25669085      11.10506076         0.00000000       0.00000000       0.00000000          1
H        14.12455992       5.99466583       4.22974049         0.00000000       0.00000000       0.00000000          1
H        12.07298460       9.48606987       3.83952162         0.00000000       0.00000000       0.00000000          1
6
pbc=[F, F, F] list_num_par=6 frozen=false iter=219 energy=-0.08992006 Lattice="15.00000000 0.00000000 0.00000000 0.00000000 15.00000000 0.00000000 0.00000000 0.00000000 15.00000000" energy_frozen_part=0.00000000 Properties=species:S:1:pos:R:3:velocities:R:3:Z:I:1
H         2.12106110      11.15975375       8.02158049         0.00000000       0.00000000       0.00000000          1
H         5.37749653      14.03195803      10.15319607         0.00000000       0.00000000       0.00000000          1
H        11.05905997       6.18361772      10.78851079         0.00000000       0.00000000       0.00000000          1
H         1.96556410      14.34673225      10.45382411         0.00000000       0.00000000       0.00000000          1
H         6.99001398       1.97132823       7.74453860         0.00000000       0.00000000       0.00000000          1
H         2.99681977       8.31035264       4.39082196         0.00000000       0.00000000       0.00000000          1
6
pbc=[F, F, F] list_num_par=6 frozen=false iter=229 energy=-0.09368024 Lattice="15.00000000 0.00000000 0.00000000 0.00000000 15.00000000 0.00000000 0.00000000 0.00000000 15.00000000" energy_frozen_part=0.00000000 Properties=species:S:1:pos:R:3:velocities:R:3:Z:I:1
H        12.19769733       6.31275839       0.22262337         0.00000000       0.00000000       0.00000000          1
H         4.25691269       6.88631528       9.75165908         0.00000000       0.00000000       0.00000000          1
H         1.49480061      12.51643176      12.10275931         0.00000000       0.00000000       0.00000000          1
H         8.50791224       6.38477421       4.35202976         0.00000000       0.00000000       0.00000000          1
H         7.70835889       0.10460460       3.90564749         0.00000000       0.00000000       0.00000000          1
H         1.65716233       5.79048088      10.86056128         0.00000000       0.00000000       0.00000000          1
6
pbc=[F, F, F] list_num_par=6 frozen=false iter=239 energy=-0.09622195 Lattice="15.00000000 0.00000000 0.00000000 0.00000000 15.00000000 0.00000000 0.00000000 0.00000000 15.00000000" energy_frozen_part=0.00000000 Properties=species:S:1:pos:R:3:velocities:R:3:Z:I:1
H         6.56412594       2.87257362       7.70522805         0.00000000       0.00000000       0.00000000          1
H         0.00186083       5.26581402      11.46439620         0.00000000       0.00000000       0.00000000          1
H         8.98890218       0.40153875      12.95738739         0.00000000       0.00000000       0.00000000          1
H        10.44155086       7.44238417       5.58440508         0.00000000       0.00000000       0.00000000          1
H         6.43526261       0.85207995      10.40586397         0.00000000       0.00000000       0.00000000          1
H        11.30140352      12.02709138      13.62001696         0.00000000       0.00000000       0.00000000          1
6
pbc=[F, F, F] list_num_par=6 frozen=false iter=249 energy=-0.09903654 Lattice="15.00000000 0.00000000 0.00000000 0.00000000 15.00000000 0.00000000 0.00000000 0.00000000 15.00000000" energy_frozen_part=0.00000000 Properties=species:S:1:pos:R:3:velocities:R:3:Z:I:1
H         0.92177985      11.36050951       1.26081627         0.00000000       0.00000000       0.00000000          1
H         8.19449302       3.89187662       0.68768843         0.00000000       0.00000000       0.00000000          1
H        14.12187357       4.33582192      12.32650960         0.00000000       0.00000000       0.00000000          1
H         2.81816428      12.85957114       2.80198167         0.00000000       0.00000000       0.00000000          1
H         7.63175945       0.29566100      10.56028245         0.00000000       0.00000000       0.00000000          1
H         0.95101430       2.90845589       6.37431660         0.00000000       0.00000000       0.00000000          1
6
pbc=[F, F, F] list_num_par=6 frozen=false iter=259 energy=-0.10100640 Lattice="15.00000000 0.00000000 0.00000000 0.00000000 15.00000000 0.00000000 0.00000000 0.00000000 15.00000000" energy_frozen_part=0.00000000 Properties=species:S:1:pos:R:3:velocities:R:3:Z:I:1
H         6.92499963       0.70441520       4.45259842         0.00000000       0.00000000       0.00000000          1
H         3.31249461       6.55957889       5.32188963         0.00000000       0.00000000       0.00000000          1
H         9.10198049       2.67098154       3.96036586         0.00000000       0.00000000       0.00000000          1
H         1.20045345       0.40288299       3.55004392         0.00000000       0.00000000       0.00000000          1
H        14.55485716       2.79772931       5.07804895         0.00000000       0.00000000       0.00000000          1
H         8.65381435       8.98811802       8.64625723         0.00000000       0.00000000       0.00000000          1
6
pbc=[F, F, F] list_num_par=6 frozen=false iter=269 energy=-0.10369866 Lattice="15.00000000 0.00000000 0.00000000 0.00000000 15.00000000 0.00000000 0.00000000 0.00000000 15.00000000" energy_frozen_part=0.00000000 Properties=species:S:1:pos:R:3:velocities:R:3:Z:I:1
H         0.05660042       5.11762514       5.73778928         0.00000000       0.00000000       0.00000000          1
H         2.61941286       5.73511698       0.46958924         0.00000000       0.00000000       0.00000000          1
H         0.28435516       2.28670174       5.73374848         0.00000000       0.00000000       0.00000000          1
H         0.68082065       2.49130122      13.27943910         0.00000000       0.00000000       0.00000000          1
H         8.68892501       2.87982822       7.88305868         0.00000000       0.00000000       0.00000000          1
H        13.75362402       5.83000732       1.81963857         0.00000000       0.00000000       0.00000000          1
6
pbc=[F, F, F] list_num_par=6 frozen=false iter=279 energy=-0.10614168 Lattice="15.00000000 0.00000000 0.00000000 0.00000000 15.00000000 0.00000000 0.00000000 0.00000000 15.00000000" energy_frozen_part=0.00000000 Properties=species:S:1:pos:R:3:velocities:R:3:Z:I:1
H         3.75175362       2.31455006       8.63570604         0.00000000       0.00000000       0.00000000          1
H        13.88676779      13.69561193      13.82576116         0.00000000       0.00000000       0.00000000          1
H         9.00804110       2.52505011       4.39049016         0.00000000       0.00000000       0.00000000          1
H         4.55178468       6.40396643      12.12914895         0.00000000       0.00000000       0.00000000          1
H         7.15139393       4.38454756       3.38344518         0.00000000       0.00000000       0.00000000          1
H        14.30785951       8.17100555       5.18933060         0.00000000       0.00000000       0.00000000          1
6
pbc=[F, F, F] list_num_par=6 frozen=false iter=289 energy=-0.10961258 Lattice="15.00000000 0.00000000 0.00000000 0.00000000 15.00000000 0.00000000 0.00000000 0.00000000 15.00000000" energy_frozen_part=0.00000000 Properties=species:S:1:pos:R:3:velocities:R:3:Z:I:1
H         2.39312062       4.02699871      14.36756273         0.00000000       0.00000000       0.00000000          1
H         7.35948344       3.01639251       7.96515241         0.00000000       0.00000000       0.00000000          1
H        12.31668986      14.02844148       6.74749032         0.00000000       0.00000000       0.00000000          1
H         2.51155069       2.60160452      11.49371809         0.00000000       0.00000000       0.00000000          1
H         8.50491910       3.27731047       5.70690320         0.00000000       0.00000000       0.00000000          1
H         9.99843915       0.91230632      14.17077473         0.00000000       0.00000000       0.00000000          1
6
pbc=[F, F, F] list_num_par=6 frozen=false iter=299 energy=-0.11141562 Lattice="15.00000000 0.00000000 0.00000000 0.00000000 15.00000000 0.00000000 0.00000000 0.00000000 15.00000000" energy_frozen_part=0.00000000 Properties=species:S:1:pos:R:3:velocities:R:3:Z:I:1
H         5.18997811       9.79752175      12.09734859         0.00000000       0.00000000       0.00000000          1
H         5.26580572      14.84317962       3.90463980         0.00000000       0.00000000       0.00000000          1
H         5.37317057       1.68612677       6.76239574         0.00000000       0.00000000       0.00000000          1
H         7.91103617       1.58886308      11.68050243         0.00000000       0.00000000       0.00000000          1
H         1.24372359       9.26968659      11.86666391         0.00000000       0.00000000       0.00000000          1
H        10.06624085       0.18691587      10.01318622         0.00000000       0.00000000       0.00000000          1
6
pbc=[F, F, F] list_num_par=6 frozen=false iter=309 energy=-0.11432240 Lattice="15.00000000 0.00000000 0.00000000 0.00000000 15.00000000 0.00000000 0.00000000 0.00000000 15.00000000" energy_frozen_part=0.00000000 Properties=species:S:1:pos:R:3:velocities:R:3:Z:I:1
H        11.91017329      14.50233900      12.97469777         0.00000000       0.00000000       0.00000000          1
H         5.48699483       5.07706640       7.14943684         0.00000000       0.00000000       0.00000000          1