6
pbc=[F, F, F] list_num_par=6 frozen=false iter=9 energy=4.40501261 Lattice="15.00000000 0.00000000 0.00000000 0.00000000 15.00000000 0.00000000 0.00000000 0.00000000 15.00000000" energy_frozen_part=0.00000000 Properties=species:S:1:pos:R:3:velocities:R:3:Z:I:1
H         7.38103321       2.68440129       0.96257631         0.00000000       0.00000000       0.00000000          1
H        14.71150993       3.39668195      12.35567024         0.00000000       0.00000000       0.00000000          1
H         4.56164782      10.51486994       2.00706642         0.00000000       0.00000000       0.00000000          1
H         7.75403230       2.63851822       2.92324683         0.00000000       0.00000000       0.00000000          1
H        14.19016537       4.79909481       2.45133051         0.00000000       0.00000000       0.00000000          1
H         1.75892992       5.40359148      14.76368398         0.00000000       0.00000000       0.00000000          1
6
pbc=[F, F, F] list_num_par=6 frozen=false iter=19 energy=0.21668533 Lattice="15.00000000 0.00000000 0.00000000 0.00000000 15.00000000 0.00000000 0.00000000 0.00000000 15.00000000" energy_frozen_part=0.00000000 Properties=species:S:1:pos:R:3:velocities:R:3:Z:I:1
H         2.48955788       2.39362982       7.18633156         0.00000000       0.00000000       0.00000000          1
H         4.33259386       3.21928199       5.97364053         0.00000000       0.00000000       0.00000000          1
H         9.95897779       4.29497001       5.57115923         0.00000000       0.00000000       0.00000000          1
H         2.26405623       8.62391849      12.41237994         0.00000000       0.00000000       0.00000000          1
H        12.86782322       1.22752102      11.61897760         0.00000000       0.00000000       0.00000000          1
H         9.94169453       8.20649080       6.07889509         0.00000000       0.00000000       0.00000000          1
6
pbc=[F, F, F] list_num_par=6 frozen=false iter=29 energy=-0.00204734 Lattice="15.00000000 0.00000000 0.00000000 0.00000000 15.00000000 0.00000000 0.00000000 0.00000000 15.00000000" energy_frozen_part=0.00000000 Properties=species:S:1:pos:R:3:velocities:R:3:Z:I:1
H         9.05725032      13.19715887      14.18500655         0.00000000       0.00000000       0.00000000          1
H         8.47399285       0.70352270      12.51915347         0.00000000       0.00000000       0.00000000          1
H        14.26930136       8.07456908       9.39849789         0.00000000       0.00000000       0.00000000          1
H         5.47804569      11.15763050       8.91247583         0.00000000       0.00000000       0.00000000          1
H         8.92674110       9.41474720      11.47183801         0.00000000       0.00000000       0.00000000          1
H        12.53567852       9.47630630      10.42254099         0.00000000       0.00000000       0.00000000          1
6
pbc=[F, F, F] list_num_par=6 frozen=false iter=39 energy=-0.00637703 Lattice="15.00000000 0.00000000 0.00000000 0.00000000 15.00000000 0.00000000 0.00000000 0.00000000 15.00000000" energy_frozen_part=0.00000000 Properties=species:S:1:pos:R:3:velocities:R:3:Z:I:1
H        11.32058678       8.21195951       8.24562967         0.00000000       0.00000000       0.00000000          1
H         9.42065967      12.22772490       4.29155982         0.00000000       0.00000000       0.00000000          1
H        12.01401486      13.17889817      14.29292420         0.00000000       0.00000000       0.00000000          1
H         1.80096582       7.70021439      10.07214097         0.00000000       0.00000000       0.00000000          1
H        10.59268072       5.51212552       1.22225510         0.00000000       0.00000000       0.00000000          1
H         4.45960480       9.80539027      14.61725516         0.00000000       0.00000000       0.00000000          1
6
pbc=[F, F, F] list_num_par=6 frozen=false iter=49 energy=-0.00884788 Lattice="15.00000000 0.00000000 0.00000000 0.00000000 15.00000000 0.00000000 0.00000000 0.00000000 15.00000000" energy_frozen_part=0.00000000 Properties=species:S:1:pos:R:3:velocities:R:3:Z:I:1
H         2.70748933       0.78822560       9.18256145         0.00000000       0.00000000       0.00000000          1
H         0.31771983       8.63039296       6.17043737         0.00000000       0.00000000       0.00000000          1
H         2.71251322      13.08454498       9.74636103         0.00000000       0.00000000       0.00000000          1
H         7.01429577       3.52866839      10.65506708         0.00000000       0.00000000       0.00000000          1
H         6.36465560       1.31485293       4.37614023         0.00000000       0.00000000       0.00000000          1
H        13.77028267      13.81924609       2.59074377         0.00000000       0.00000000       0.00000000          1
6
pbc=[F, F, F] list_num_par=6 frozen=false iter=59 energy=-0.01093988 Lattice="15.00000000 0.00000000 0.00000000 0.00000000 15.00000000 0.00000000 0.00000000 0.00000000 15.00000000" energy_frozen_part=0.00000000 Properties=species:S:1:pos:R:3:velocities:R:3:Z:I:1
H         6.00790487       2.84586786       1.73933975         0.00000000       0.00000000       0.00000000          1
H         6.58791872       0.28461955      14.71738344         0.00000000       0.00000000       0.00000000          1
H        10.50919271       4.76992168       2.02057051         0.00000000       0.00000000       0.00000000          1
H        13.90648243       9.93432284       3.15309517         0.00000000       0.00000000       0.00000000          1
H        11.87899907       1.39220695       6.79474975         0.00000000       0.00000000       0.00000000          1
H        11.73537624       6.86490373      13.45705222         0.00000000       0.00000000       0.00000000          1
6
pbc=[F, F, F] list_num_par=6 frozen=false iter=69 energy=-0.01660096 Lattice="15.00000000 0.00000000 0.00000000 0.00000000 15.00000000 0.00000000 0.00000000 0.00000000 15.00000000" energy_frozen_part=0.00000000 Properties=species:S:1:pos:R:3:velocities:R:3:Z:I:1
H        11.44311107       9.54644261       4.61849519         0.00000000       0.00000000       0.00000000          1
H         2.17649869       4.71995261      13.79844523         0.00000000       0.00000000       0.00000000          1
H        11.19693449       5.49606571       7.35913517         0.00000000       0.00000000       0.00000000          1
H         6.50142330      12.69190269       4.59920467         0.00000000       0.00000000       0.00000000          1
H         1.52122096      11.00298254       2.18701800         0.00000000       0.00000000       0.00000000          1
H         0.93674766       9.39426566      11.91612619         0.00000000       0.00000000       0.00000000          1
6
pbc=[F, F, F] list_num_par=6 frozen=false iter=79 energy=-0.01914388 Lattice="15.00000000 0.00000000 0.00000000 0.00000000 15.00000000 0.00000000 0.00000000 0.00000000 15.00000000" energy_frozen_part=0.00000000 Properties=species:S:1:pos:R:3:velocities:R:3:Z:I:1
H         6.49534218      11.97141666       7.48447958         0.00000000       0.00000000       0.00000000          1
H         1.96736809       6.69223779       6.78867311         0.00000000       0.00000000       0.00000000          1
H         9.66527823      14.28605715       5.79287980         0.00000000       0.00000000       0.00000000          1
H        12.53735216       6.70348012       7.86894133         0.00000000       0.00000000       0.00000000          1
H         0.37436806      12.60921018      11.37066637         0.00000000       0.00000000       0.00000000          1
H        10.18338086       2.34482520       4.22606744         0.00000000       0.00000000       0.00000000          1
6
pbc=[F, F, F] list_num_par=6 frozen=false iter=89 energy=-0.02715871 Lattice="15.00000000 0.00000000 0.00000000 0.00000000 15.00000000 0.00000000 0.00000000 0.00000000 15.00000000" energy_frozen_part=0.00000000 Properties=species:S:1:pos:R:3:velocities:R:3:Z:I:1
H         1.12516063      13.90099808       3.49771647         0.00000000       0.00000000       0.00000000          1
H        10.88854998      14.30526443      12.16622934         0.00000000       0.00000000       0.00000000          1
H         5.79115250      13.46424182       9.92214157         0.00000000       0.00000000       0.00000000          1
H         0.11265363      14.02531690       7.58796624         0.00000000       0.00000000       0.00000000          1
H        10.12351793       2.35722346       4.91300001         0.00000000       0.00000000       0.00000000          1
H         5.94644596       1.90336034       2.11425521         0.00000000       0.00000000       0.00000000          1
6
pbc=[F, F, F] list_num_par=6 frozen=false iter=99 energy=-0.03027312 Lattice="15.00000000 0.00000000 0.00000000 0.00000000 15.00000000 0.00000000 0.00000000 0.00000000 15.00000000" energy_frozen_part=0.00000000 Properties=species:S:1:pos:R:3:velocities:R:3:Z:I:1
H         9.50163592      14.50390581       8.87665943         0.00000000       0.00000000       0.00000000          1
H        13.71219019      14.66155711      14.89306688         0.00000000       0.00000000       0.00000000          1
H         9.84708206      11.18670674       1.04924109         0.00000000       0.00000000       0.00000000          1
H         4.25949439      14.16298264      10.73908986         0.00000000       0.00000000       0.00000000          1
H        11.37830724      11.84239330      12.09607868         0.00000000       0.00000000       0.00000000          1
H         4.75964851      10.68647323       6.75000015         0.00000000       0.00000000       0.00000000          1
6
pbc=[F, F, F] list_num_par=6 frozen=false iter=109 energy=-0.03712146 Lattice="15.00000000 0.00000000 0.00000000 0.00000000 15.00000000 0.00000000 0.00000000 0.00000000 15.00000000" energy_frozen_part=0.00000000 Properties=species:S:1:pos:R:3:velocities:R:3:Z:I:1
H        13.41216714      11.21269303       5.21114009         0.00000000       0.00000000       0.00000000          1
H         5.31631433       7.20077874       4.12289015         0.00000000       0.00000000       0.00000000          1
H         1.01763757      11.14656924       5.36128283         0.00000000       0.00000000       0.00000000          1
H         8.82418152       6.42443852       5.77262644         0.00000000       0.00000000       0.00000000          1
H         7.69213118      12.27436595       7.24723264         0.00000000       0.00000000       0.00000000          1
H         7.59362020      11.00309848       0.44238553         0.00000000       0.00000000       0.00000000          1
6
pbc=[F, F, F] list_num_par=6 frozen=false iter=119 energy=-0.04058599 Lattice="15.00000000 0.00000000 0.00000000 0.00000000 15.00000000 0.00000000 0.00000000 0.00000000 15.00000000" energy_frozen_part=0.00000000 Properties=species:S:1:pos:R:3:velocities:R:3:Z:I:1
H        12.44201723       6.88050101       5.10843261         0.00000000       0.00000000       0.00000000          1
H        14.98250199       3.91148946       9.82360819         0.00000000       0.00000000       0.00000000          1
H        12.01652224      13.04886036       7.44353712         0.00000000       0.00000000       0.00000000          1
H        14.30159001      12.35096514       4.64034010         0.00000000       0.00000000       0.00000000          1
H         1.62783725       5.92302088       8.31509460         0.00000000       0.00000000       0.00000000          1
H         2.84033338      12.56260772      13.97888769         0.00000000       0.00000000       0.00000000          1
6
pbc=[F, F, F] list_num_par=6 frozen=false iter=129 energy=-0.04930339 Lattice="15.00000000 0.00000000 0.00000000 0.00000000 15.00000000 0.00000000 0.00000000 0.00000000 15.00000000" energy_frozen_part=0.00000000 Properties=species:S:1:pos:R:3:velocities:R:3:Z:I:1
H         5.34503405      10.26181875       7.63643754         0.00000000       0.00000000       0.00000000          1
H         1.56372391       2.47950502      12.94957842         0.00000000       0.00000000       0.00000000          1
H        10.08811699       5.35780019       4.06839150         0.00000000       0.00000000       0.00000000          1
H        13.29808150       1.47689680       6.42840064         0.00000000       0.00000000       0.00000000          1
H         4.83769075      12.28982170      10.45709696         0.00000000       0.00000000       0.00000000          1
H        13.05377187      10.48485250      10.55716352         0.00000000       0.00000000       0.00000000          1
6
pbc=[F, F, F] list_num_par=6 frozen=false iter=139 energy=-0.05235577 Lattice="15.00000000 0.00000000 0.00000000 0.00000000 15.00000000 0.00000000 0.00000000 0.00000000 15.00000000" energy_frozen_part=0.00000000 Properties=species:S:1:pos:R:3:velocities:R:3:Z:I:1
H        10.21547675       6.58541663       7.24444502         0.00000000       0.00000000       0.00000000          1
H         6.03517069       1.41613993      14.43563676         0.00000000       0.00000000       0.00000000          1
H        13.44540632       5.60896214       8.15563576         0.00000000       0.00000000       0.00000000          1
H         0.45875923      12.40089632       2.93128764         0.00000000       0.00000000       0.00000000          1
H        12.51791160       8.27360684      13.59078274         0.00000000       0.00000000       0.00000000          1
H         4.10401969      13.10709723       6.98468881         0.00000000       0.00000000       0.00000000          1
6
pbc=[F, F, F] list_num_par=6 frozen=false iter=149 energy=-0.05839427 Lattice="15.00000000 0.00000000 0.00000000 0.00000000 15.00000000 0.00000000 0.00000000 0.00000000 15.00000000" energy_frozen_part=0.00000000 Properties=species:S:1:pos:R:3:velocities:R:3:Z:I:1
H         3.97160328      11.52139734       4.28319888         0.00000000       0.00000000       0.00000000          1
H         5.64779021      11.25934735       1.23797031         0.00000000       0.00000000       0.00000000          1
H         2.04971698       9.90429062      14.32170733         0.00000000       0.00000000       0.00000000          1
H        11.90712755       4.06194014      10.58590417         0.00000000       0.00000000       0.00000000          1
H         3.22326390      14.30222219      14.40442340         0.00000000       0.00000000       0.00000000          1
H         8.81485153       5.00254123       1.64643185         0.00000000       0.00000000       0.00000000          1
6
pbc=[F, F, F] list_num_par=6 frozen=false iter=159 energy=-0.06258271 Lattice="15.00000000 0.00000000 0.00000000 0.00000000 15.00000000 0.00000000 0.00000000 0.00000000 15.00000000" energy_frozen_part=0.00000000 Properties=species:S:1:pos:R:3:velocities:R:3:Z:I:1
H         3.62777291      11.91741877      10.75431723         0.00000000       0.00000000       0.00000000          1
H        11.66010279      13.04120332       0.06891950         0.00000000       0.00000000       0.00000000          1
H        13.90707043      11.71234827       2.58847036         0.00000000       0.00000000       0.00000000          1
H         0.74702431      14.67787993      10.90312743         0.00000000       0.00000000       0.00000000          1
H        13.72468856       8.05921254       7.45103076         0.00000000       0.00000000       0.00000000          1
H         0.43136773       5.43667213       1.62494792         0.00000000       0.00000000       0.00000000          1
6
pbc=[F, F, F] list_num_par=6 frozen=false iter=169 energy=-0.06671607 Lattice="15.00000000 0.00000000 0.00000000 0.00000000 15.00000000 0.00000000 0.00000000 0.00000000 15.00000000" energy_frozen_part=0.00000000 Properties=species:S:1:pos:R:3:velocities:R:3:Z:I:1
H         4.52113290       7.53085019       4.24158790         0.00000000       0.00000000       0.00000000          1
H         3.41284855       5.59512697       1.84197583         0.00000000       0.00000000       0.00000000          1
H        12.18202957       7.18473511       4.86459923         0.00000000       0.00000000       0.00000000          1
H         9.24780952       2.50191282       7.01570194         0.00000000       0.00000000       0.00000000          1
H         5.41364595      14.56618112       9.60976332         0.00000000       0.00000000       0.00000000          1
H         0.99421976       6.66279078      12.47574727         0.00000000       0.00000000       0.00000000          1
6
pbc=[F, F, F] list_num_par=6 frozen=false iter=179 energy=-0.07076631 Lattice="15.00000000 0.00000000 0.00000000 0.00000000 15.00000000 0.00000000 0.00000000 0.00000000 15.00000000" energy_frozen_part=0.00000000 Properties=species:S:1:pos:R:3:velocities:R:3:Z:I:1
H        10.24267874       9.42177862      14.10720899         0.00000000       0.00000000       0.00000000          1
H         1.74584673       7.73201495      13.78331218         0.00000000       0.00000000       0.00000000          1
H         5.04757792      10.78154583       4.73997432         0.00000000       0.00000000       0.00000000          1
H        10.99377596       7.12317245       3.03982738         0.00000000       0.00000000       0.00000000          1
H         7.07009433       2.88331381       6.69212204         0.00000000       0.00000000       0.00000000          1
H         8.85697508       8.71258032       1.17979353         0.00000000       0.00000000       0.00000000          1
6
pbc=[F, F, F] list_num_par=6 frozen=false iter=189 energy=-0.07642235 Lattice="15.00000000 0.00000000 0.00000000 0.00000000 15.00000000 0.00000000 0.00000000 0.00000000 15.00000000" energy_frozen_part=0.00000000 Properties=species:S:1:pos:R:3:velocities:R:3:Z:I:1
H         9.38013951       1.76374149      12.57328276         0.00000000       0.00000000       0.00000000          1
H        11.41256192       7.65004139       5.28489821         0.00000000       0.00000000       0.00000000          1
H        13.27382260       5.13534278       4.42724140         0.00000000       0.00000000       0.00000000          1
H         7.00893835       4.47322795       9.22792050         0.00000000       0.00000000       0.00000000          1
H         0.42348635       4.70319616       9.70477742         0.00000000       0.00000000       0.00000000          1
H         1.36187565      10.64394606      12.43201847         0.00000000       0.00000000       0.00000000          1
6
pbc=[F, F, F] list_num_par=6 frozen=false iter=199 energy=-0.07853150 Lattice="15.00000000 0.00000000 0.00000000 0.00000000 15.00000000 0.00000000 0.00000000 0.00000000 15.00000000" energy_frozen_part=0.00000000 Properties=species:S:1:pos:R:3:velocities:R:3:Z:I:1
H         2.42032032       6.06001542      12.09923790         0.00000000       0.00000000       0.00000000          1
H        13.09646647      11.52980827       8.99814569         0.00000000       0.00000000       0.00000000          1
H        11.39006450       6.29807710      13.46849302         0.00000000       0.00000000       0.00000000          1
H         7.94045461       3.81345087       9.55603134         0.00000000       0.00000000       0.00000000          1
H        11.70090171       7.76370868      10.44770285         0.00000000       0.00000000       0.00000000          1
H         2.75510507       0.59817279       0.64319895         0.00000000       0.00000000       0.00000000          1
6
pbc=[F, F, F] list_num_par=6 frozen=false iter=209 energy=-0.08279756 Lattice="15.00000000 0.00000000 0.00000000 0.00000000 15.00000000 0.00000000 0.00000000 0.00000000 15.00000000" energy_frozen_part=0.00000000 Properties=species:S:1:pos:R:3:velocities:R:3:Z:I:1
H        14.85419258       0.12381492       7.87602183         0.00000000       0.00000000       0.00000000          1
H         1.12457075       1.80111216       9.62597787         0.00000000       0.00000000       0.00000000          1
H         8.88222859       6.04812182       6.41364141         0.00000000       0.00000000       0.00000000          1
H         8.33090120       6.16623422      11.35358287         0.00000000       0.00000000       0.00000000          1
H         0.20057946      11.88695646       2.96711414         0.00000000       0.00000000       0.00000000          1
H        11.29908632       6.70111771      12.27025210         0.00000000       0.00000000       0.00000000          1
6
pbc=[F, F, F] list_num_par=6 frozen=false iter=219 energy=-0.08886569 Lattice="15.00000000 0.00000000 0.00000000 0.00000000 15.00000000 0.00000000 0.00000000 0.00000000 15.00000000" energy_frozen_part=0.00000000 Properties=species:S:1:pos:R:3:velocities:R:3:Z:I:1
H         7.48100172       1.46233312       7.40709532         0.00000000       0.00000000       0.00000000          1
H         0.99038415      10.29870372       9.44073020         0.00000000       0.00000000       0.00000000          1
H        12.25957856       8.42508359       8.29512400         0.00000000       0.00000000       0.00000000          1
H         9.79531490       0.10876429       8.79141144         0.00000000       0.00000000       0.00000000          1
H         1.87917409       3.97518659       3.85936585         0.00000000       0.00000000       0.00000000          1
H         9.27929803      11.59558357       1.68329345         0.00000000       0.00000000       0.00000000          1
6
pbc=[F, F, F] list_num_par=6 frozen=false iter=229 energy=-0.09201102 Lattice="15.00000000 0.00000000 0.00000000 0.00000000 15.00000000 0.00000000 0.00000000 0.00000000 15.00000000" energy_frozen_part=0.00000000 Properties=species:S:1:pos:R:3:velocities:R:3:Z:I:1
H         9.30050622      12.32646989       2.79339020         0.00000000       0.00000000       0.00000000          1
H         3.79040048      12.54057007      14.61772355         0.00000000       0.00000000       0.00000000          1
H        10.54696944      13.37961268       5.79026410         0.00000000       0.00000000       0.00000000          1
H         1.65436487      10.04794070      13.12015376         0.00000000       0.00000000       0.00000000          1
H        12.52928594       7.33777167      10.88564986         0.00000000       0.00000000       0.00000000          1
H         6.14641832       4.09528644       7.29563639         0.00000000       0.00000000       0.00000000          1
6
pbc=[F, F, F] list_num_par=6 frozen=false iter=239 energy=-0.09584473 Lattice="15.00000000 0.00000000 0.00000000 0.00000000 15.00000000 0.00000000 0.00000000 0.00000000 15.00000000" energy_frozen_part=0.00000000 Properties=species:S:1:pos:R:3:velocities:R:3:Z:I:1
H        10.31327632      10.03308585       0.35016211         0.00000000       0.00000000       0.00000000          1
H        12.81670163      13.97314005      11.27676548         0.00000000       0.00000000       0.00000000          1
H        10.93544938       1.52501637       1.22799564         0.00000000       0.00000000       0.00000000          1
H         3.31800615       1.13662121       4.81484172         0.00000000       0.00000000       0.00000000          1
H         1.24873991      10.52902644      13.47764141         0.00000000       0.00000000       0.00000000          1
H        11.20125038       4.46013740       1.43137816         0.00000000       0.00000000       0.00000000          1
6
pbc=[F, F, F] list_num_par=6 frozen=false iter=249 energy=-0.09797255 Lattice="15.00000000 0.00000000 0.00000000 0.00000000 15.00000000 0.00000000 0.00000000 0.00000000 15.00000000" energy_frozen_part=0.00000000 Properties=species:S:1:pos:R:3:velocities:R:3:Z:I:1
H         4.82615705       3.76764754      10.19777518         0.00000000       0.00000000       0.00000000          1
H        13.71961479      11.60894062      11.37768995         0.00000000       0.00000000       0.00000000          1
H         1.13793791      13.61365268       8.77855910         0.00000000       0.00000000       0.00000000          1
H         9.67767158       3.65002582      12.55011682         0.00000000       0.00000000       0.00000000          1
H        14.98378674      11.28753969       3.01963987         0.00000000       0.00000000       0.00000000          1
H        14.56947567      13.80208235      10.04759933         0.00000000       0.00000000       0.00000000          1
6
pbc=[F, F, F] list_num_par=6 frozen=false iter=259 energy=-0.10032978 Lattice="15.00000000 0.00000000 0.00000000 0.00000000 15.00000000 0.00000000 0.00000000 0.00000000 15.00000000" energy_frozen_part=0.00000000 Properties=species:S:1:pos:R:3:velocities:R:3:Z:I:1
H        13.37536781      10.20377217       5.74386615         0.00000000       0.00000000       0.00000000          1
H        12.65684785       9.95792172       8.36080975         0.00000000       0.00000000       0.00000000          1
H        13.25672691       7.68102762       0.71237701         0.00000000       0.00000000       0.00000000          1
H         5.87903928       2.89831581      12.62292504         0.00000000       0.00000000       0.00000000          1
H         1.88098668      12.04188104      13.41434649         0.00000000       0.00000000       0.00000000          1
H         9.68897787      12.97297140      14.19912402         0.00000000       0.00000000       0.00000000          1
6
pbc=[F, F, F] list_num_par=6 frozen=false iter=269 energy=-0.10219818 Lattice="15.00000000 0.00000000 0.00000000 0.00000000 15.00000000 0.00000000 0.00000000 0.00000000 15.00000000" energy_frozen_part=0.00000000 Properties=species:S:1:pos:R:3:velocities:R:3:Z:I:1
H         6.61642673      14.47887756       7.55864448         0.00000000       0.00000000       0.00000000          1
H         0.57511545       8.47786903      13.88210943         0.00000000       0.00000000       0.00000000          1
H        14.60521784       7.64846137       3.72026877         0.00000000       0.00000000       0.00000000          1
H         3.58025013       7.62340963       6.10937392         0.00000000       0.00000000       0.00000000          1
H         3.31364750       9.24494693       8.48616031         0.00000000       0.00000000       0.00000000          1
H        11.14573172       1.96580405       4.55898995         0.00000000       0.00000000       0.00000000          1
6
pbc=[F, F, F] list_num_par=6 frozen=false iter=279 energy=-0.10465802 Lattice="15.00000000 0.00000000 0.00000000 0.00000000 15.00000000 0.00000000 0.00000000 0.00000000 15.00000000" energy_frozen_part=0.00000000 Properties=species:S:1:pos:R:3:velocities:R:3:Z:I:1
H         8.84732121       1.05833161       1.61277803         0.00000000       0.00000000       0.00000000          1
H         6.12512887       1.01880303       1.86670622         0.00000000       0.00000000       0.00000000          1
H         7.83449305      10.33787079       8.86237415         0.00000000       0.00000000       0.00000000          1
H         5.99929770       6.49953240       4.02841752         0.00000000       0.00000000       0.00000000          1
H        12.40262579      14.96967495       6.69194359         0.00000000       0.00000000       0.00000000          1
H         4.69052410       8.11803527      13.36272011         0.00000000       0.00000000       0.00000000          1
6
pbc=[F, F, F] list_num_par=6 frozen=false iter=289 energy=-0.10684383 Lattice="15.00000000 0.00000000 0.00000000 0.00000000 15.00000000 0.00000000 0.00000000 0.00000000 15.00000000" energy_frozen_part=0.00000000 Properties=species:S:1:pos:R:3:velocities:R:3:Z:I:1
H         9.86259419       1.81412290       6.04930497         0.00000000       0.00000000       0.00000000          1
H         1.00145756      12.44010515      12.97043098         0.00000000       0.00000000       0.00000000          1
H        12.82072835       1.35456165      10.93258727         0.00000000       0.00000000       0.00000000          1
H        10.33749494       4.29478545       7.54673299         0.00000000       0.00000000       0.00000000          1
H         1.23657867       5.53215004       1.80544723         0.00000000       0.00000000       0.00000000          1
H         4.17233510       9.25822802       4.02194059         0.00000000       0.00000000       0.00000000          1
6
pbc=[F, F, F] list_num_par=6 frozen=false iter=299 energy=-0.10959779 Lattice="15.00000000 0.00000000 0.00000000 0.00000000 15.00000000 0.00000000 0.00000000 0.00000000 15.00000000" energy_frozen_part=0.00000000 Properties=species:S:1:pos:R:3:velocities:R:3:Z:I:1
H         6.12576060      10.20078095       7.89174799         0.00000000       0.00000000       0.00000000          1
H         0.57146705       3.90310855       0.19621559         0.00000000       0.00000000       0.00000000          1
H        11.14929556       2.12544422      13.16348674         0.00000000       0.00000000       0.00000000          1
H         4.90298064       6.92057957      14.90321401         0.00000000       0.00000000       0.00000000          1
H         2.25839191       3.00932795      14.17322413         0.00000000       0.00000000       0.00000000          1
H         7.15801061      10.30090007      10.45346872         0.00000000       0.00000000       0.00000000          1
6
pbc=[F, F, F] list_num_par=6 frozen=false iter=309 energy=-0.11229401 Lattice="15.00000000 0.00000000 0.00000000 0.00000000 15.00000000 0.00000000 0.00000000 0.00000000 15.00000000" energy_frozen_part=0.00000000 Properties=species:S:1:pos:R:3:velocities:R:3:Z:I:1
H         6.95922870       2.11512390       1.75798908         0.00000000       0.00000000       0.00000000          1
H        10.83729796       5.54667552       1.25854378         0.00000000       0.00000000       0.00000000          1