6
pbc=[F, F, F] list_num_par=6 energy=-1.26974174 iter=20000 frozen=false Lattice="15.00000000 0.00000000 0.00000000 0.00000000 15.00000000 0.00000000 0.00000000 0.00000000 15.00000000" energy_frozen_part=0.00000000 Properties=species:S:1:pos:R:3:velocities:R:3:Z:I:1
H         7.49408349      10.33108176       9.94571215         0.00000000       0.00000000       0.00000000          1
H         3.79790095      10.53072188       8.56479886         0.00000000       0.00000000       0.00000000          1
H         5.70287375      12.40100844       9.38783578         0.00000000       0.00000000       0.00000000          1
H         6.34130542      10.53505782       7.40921921         0.00000000       0.00000000       0.00000000          1
H         5.58911213       8.46079837       9.12267489         0.00000000       0.00000000       0.00000000          1
H         4.95067371      10.32674995      11.10129368         0.00000000       0.00000000       0.00000000          1
6
pbc=[F, F, F] list_num_par=6 energy=-1.26974174 iter=20000 frozen=false Lattice="15.00000000 0.00000000 0.00000000 0.00000000 15.00000000 0.00000000 0.00000000 0.00000000 15.00000000" energy_frozen_part=0.00000000 Properties=species:S:1:pos:R:3:velocities:R:3:Z:I:1
H         7.49392957      10.33063261       9.94718842         0.00000000       0.00000000       0.00000000          1
H         3.79834357      10.53552004       8.56546557         0.00000000       0.00000000       0.00000000          1
H         5.70594066      12.40313157       9.38849295         0.00000000       0.00000000       0.00000000          1
H         6.34198886      10.53579603       7.41041215         0.00000000       0.00000000       0.00000000          1
H         5.58633241       8.46303076       9.12415995         0.00000000       0.00000000       0.00000000          1
H         4.95028456      10.33036918      11.10224166         0.00000000       0.00000000       0.00000000          1
6
pbc=[F, F, F] list_num_par=6 energy=-1.26974174 iter=20000 frozen=false Lattice="15.00000000 0.00000000 0.00000000 0.00000000 15.00000000 0.00000000 0.00000000 0.00000000 15.00000000" energy_frozen_part=0.00000000 Properties=species:S:1:pos:R:3:velocities:R:3:Z:I:1
H         7.49367238      10.33088608       9.94607472         0.00000000       0.00000000       0.00000000          1
H         3.79776449      10.53114887       8.56451780         0.00000000       0.00000000       0.00000000          1
H         5.70292256      12.40112009       9.38783876         0.00000000       0.00000000       0.00000000          1
H         6.34137682      10.53500789       7.40938706         0.00000000       0.00000000       0.00000000          1
H         5.58851324       8.46091566       9.12275718         0.00000000       0.00000000       0.00000000          1
H         4.95006639      10.32702516      11.10121048         0.00000000       0.00000000       0.00000000          1
6
pbc=[F, F, F] list_num_par=6 energy=-1.26974174 iter=20000 frozen=false Lattice="15.00000000 0.00000000 0.00000000 0.00000000 15.00000000 0.00000000 0.00000000 0.00000000 15.00000000" energy_frozen_part=0.00000000 Properties=species:S:1:pos:R:3:velocities:R:3:Z:I:1
H         7.49408998      10.33108370       9.94571390         0.00000000       0.00000000       0.00000000          1
H         3.79791128      10.53071459       8.56479706         0.00000000       0.00000000       0.00000000          1
H         5.70288066      12.40101457       9.38782263         0.00000000       0.00000000       0.00000000          1
H         6.34131971      10.53504233       7.40922429         0.00000000       0.00000000       0.00000000          1
H         5.58912275       8.46078704       9.12269081         0.00000000       0.00000000       0.00000000          1
H         4.95067870      10.32675678      11.10128377         0.00000000       0.00000000       0.00000000          1
6
pbc=[F, F, F] list_num_par=6 energy=-1.26974174 iter=20000 frozen=false Lattice="15.00000000 0.00000000 0.00000000 0.00000000 15.00000000 0.00000000 0.00000000 0.00000000 15.00000000" energy_frozen_part=0.00000000 Properties=species:S:1:pos:R:3:velocities:R:3:Z:I:1
H         7.49352469      10.33057831       9.94745315         0.00000000       0.00000000       0.00000000          1
H         3.79807443      10.53535008       8.56532427         0.00000000       0.00000000       0.00000000          1
H         5.70556097      12.40302295       9.38848229         0.00000000       0.00000000       0.00000000          1
H         6.34184617      10.53561964       7.41054581         0.00000000       0.00000000       0.00000000          1
H         5.58604211       8.46290950       9.12428796         0.00000000       0.00000000       0.00000000          1
H         4.94975969      10.33030348      11.10222554         0.00000000       0.00000000       0.00000000          1
6
pbc=[F, F, F] list_num_par=6 energy=-1.26974174 iter=20000 frozen=false Lattice="15.00000000 0.00000000 0.00000000 0.00000000 15.00000000 0.00000000 0.00000000 0.00000000 15.00000000" energy_frozen_part=0.00000000 Properties=species:S:1:pos:R:3:velocities:R:3:Z:I:1
H         7.49355377      10.33057560       9.94740939         0.00000000       0.00000000       0.00000000          1
H         3.79807790      10.53539863       8.56533854         0.00000000       0.00000000       0.00000000          1
H         5.70557987      12.40304377       9.38853184         0.00000000       0.00000000       0.00000000          1
H         6.34183734      10.53570366       7.41053130         0.00000000       0.00000000       0.00000000          1
H         5.58605332       8.46293320       9.12420983         0.00000000       0.00000000       0.00000000          1
H         4.94979380      10.33026804      11.10221291         0.00000000       0.00000000       0.00000000          1
6
pbc=[F, F, F] list_num_par=6 energy=-1.26974174 iter=20000 frozen=false Lattice="15.00000000 0.00000000 0.00000000 0.00000000 15.00000000 0.00000000 0.00000000 0.00000000 15.00000000" energy_frozen_part=0.00000000 Properties=species:S:1:pos:R:3:velocities:R:3:Z:I:1
H         7.49408415      10.33108120       9.94569214         0.00000000       0.00000000       0.00000000          1
H         3.79788881      10.53073182       8.56480236         0.00000000       0.00000000       0.00000000          1
H         5.70287538      12.40101969       9.38781517         0.00000000       0.00000000       0.00000000          1
H         6.34129312      10.53503917       7.40921490         0.00000000       0.00000000       0.00000000          1
H         5.58909359       8.46079252       9.12268781         0.00000000       0.00000000       0.00000000          1
H         4.95068656      10.32677189      11.10128492         0.00000000       0.00000000       0.00000000          1
6
pbc=[F, F, F] list_num_par=6 energy=-1.26974174 iter=20000 frozen=false Lattice="15.00000000 0.00000000 0.00000000 0.00000000 15.00000000 0.00000000 0.00000000 0.00000000 15.00000000" energy_frozen_part=0.00000000 Properties=species:S:1:pos:R:3:velocities:R:3:Z:I:1
H         7.49393382      10.33051397       9.94719842         0.00000000       0.00000000       0.00000000          1
H         3.79830220      10.53556373       8.56558244         0.00000000       0.00000000       0.00000000          1
H         5.70598228      12.40307998       9.38862795         0.00000000       0.00000000       0.00000000          1
H         6.34191769      10.53579983       7.41046849         0.00000000       0.00000000       0.00000000          1
H         5.58625371       8.46299839       9.12415920         0.00000000       0.00000000       0.00000000          1
H         4.95031824      10.33028178      11.10231696         0.00000000       0.00000000       0.00000000          1
6
pbc=[F, F, F] list_num_par=6 energy=-1.26974174 iter=20000 frozen=false Lattice="15.00000000 0.00000000 0.00000000 0.00000000 15.00000000 0.00000000 0.00000000 0.00000000 15.00000000" energy_frozen_part=0.00000000 Properties=species:S:1:pos:R:3:velocities:R:3:Z:I:1
H         7.49407567      10.33107907       9.94567944         0.00000000       0.00000000       0.00000000          1
H         3.79788049      10.53071579       8.56480067         0.00000000       0.00000000       0.00000000          1
H         5.70286143      12.40100330       9.38781415         0.00000000       0.00000000       0.00000000          1
H         6.34127878      10.53504628       7.40920483         0.00000000       0.00000000       0.00000000          1
H         5.58910405       8.46078675       9.12266531         0.00000000       0.00000000       0.00000000          1
H         4.95067941      10.32674360      11.10127662         0.00000000       0.00000000       0.00000000          1
6
pbc=[F, F, F] list_num_par=6 energy=-1.26974174 iter=20000 frozen=false Lattice="15.00000000 0.00000000 0.00000000 0.00000000 15.00000000 0.00000000 0.00000000 0.00000000 15.00000000" energy_frozen_part=0.00000000 Properties=species:S:1:pos:R:3:velocities:R:3:Z:I:1
H         7.49390312      10.33065624       9.94718752         0.00000000       0.00000000       0.00000000          1
H         3.79829668      10.53551518       8.56549329         0.00000000       0.00000000       0.00000000          1
H         5.70589193      12.40313825       9.38849937         0.00000000       0.00000000       0.00000000          1
H         6.34193447      10.53579296       7.41042296         0.00000000       0.00000000       0.00000000          1
H         5.58630141       8.46303647       9.12418036         0.00000000       0.00000000       0.00000000          1
H         4.95026403      10.33037100      11.10225112         0.00000000       0.00000000       0.00000000          1
6
pbc=[F, F, F] list_num_par=6 energy=-1.26974174 iter=20000 frozen=false Lattice="15.00000000 0.00000000 0.00000000 0.00000000 15.00000000 0.00000000 0.00000000 0.00000000 15.00000000" energy_frozen_part=0.00000000 Properties=species:S:1:pos:R:3:velocities:R:3:Z:I:1
H         7.49387694      10.33049721       9.94717748         0.00000000       0.00000000       0.00000000          1
H         3.79825362      10.53557245       8.56556804         0.00000000       0.00000000       0.00000000          1
H         5.70594528      12.40307759       9.38862435         0.00000000       0.00000000       0.00000000          1
H         6.34186356      10.53580090       7.41044548         0.00000000       0.00000000       0.00000000          1
H         5.58619200       8.46299137       9.12412938         0.00000000       0.00000000       0.00000000          1
H         4.95026077      10.33026009      11.10230055         0.00000000       0.00000000       0.00000000          1
6
pbc=[F, F, F] list_num_par=6 energy=-1.26974174 iter=20000 frozen=false Lattice="15.00000000 0.00000000 0.00000000 0.00000000 15.00000000 0.00000000 0.00000000 0.00000000 15.00000000" energy_frozen_part=0.00000000 Properties=species:S:1:pos:R:3:velocities:R:3:Z:I:1
H         7.49312529      10.32954057       9.94672341         0.00000000       0.00000000       0.00000000          1
H         3.79754516      10.53733775       8.56538758         0.00000000       0.00000000       0.00000000          1
H         5.70643227      12.40340583       9.38896174         0.00000000       0.00000000       0.00000000          1
H         6.34109544      10.53639666       7.41012717         0.00000000       0.00000000       0.00000000          1
H         5.58423840       8.46347966       9.12316359         0.00000000       0.00000000       0.00000000          1
H         4.94957435      10.33048704      11.10198686         0.00000000       0.00000000       0.00000000          1
6
pbc=[F, F, F] list_num_par=6 energy=-1.26974174 iter=20000 frozen=false Lattice="15.00000000 0.00000000 0.00000000 0.00000000 15.00000000 0.00000000 0.00000000 0.00000000 15.00000000" energy_frozen_part=0.00000000 Properties=species:S:1:pos:R:3:velocities:R:3:Z:I:1
H         7.49367154      10.33090130       9.94607052         0.00000000       0.00000000       0.00000000          1
H         3.79775966      10.53115783       8.56450271         0.00000000       0.00000000       0.00000000          1
H         5.70290716      12.40113145       9.38784070         0.00000000       0.00000000       0.00000000          1
H         6.34137231      10.53504583       7.40937450         0.00000000       0.00000000       0.00000000          1
H         5.58852012       8.46092941       9.12272634         0.00000000       0.00000000       0.00000000          1
H         4.95006118      10.32702101      11.10119549         0.00000000       0.00000000       0.00000000          1
6
pbc=[F, F, F] list_num_par=6 energy=-1.26974174 iter=20000 frozen=false Lattice="15.00000000 0.00000000 0.00000000 0.00000000 15.00000000 0.00000000 0.00000000 0.00000000 15.00000000" energy_frozen_part=0.00000000 Properties=species:S:1:pos:R:3:velocities:R:3:Z:I:1
H         7.48613992      10.33074154       9.94506546         0.00000000       0.00000000       0.00000000          1
H         3.79396826      10.55233608       8.55678819         0.00000000       0.00000000       0.00000000          1
H         5.70768402      12.41117774       9.38545189         0.00000000       0.00000000       0.00000000          1
H         6.33971587      10.54349817       7.40641063         0.00000000       0.00000000       0.00000000          1
H         5.57242483       8.47189799       9.11639148         0.00000000       0.00000000       0.00000000          1
H         4.94038872      10.33957794      11.09543775         0.00000000       0.00000000       0.00000000          1
6
pbc=[F, F, F] list_num_par=6 energy=-1.26974174 iter=20000 frozen=false Lattice="15.00000000 0.00000000 0.00000000 0.00000000 15.00000000 0.00000000 0.00000000 0.00000000 15.00000000" energy_frozen_part=0.00000000 Properties=species:S:1:pos:R:3:velocities:R:3:Z:I:1
H         7.49390658      10.33050057       9.94715956         0.00000000       0.00000000       0.00000000          1
H         3.79825244      10.53554510       8.56561134         0.00000000       0.00000000       0.00000000          1
H         5.70593758      12.40306665       9.38865195         0.00000000       0.00000000       0.00000000          1
H         6.34185202      10.53581252       7.41045481         0.00000000       0.00000000       0.00000000          1
H         5.58621981       8.46298068       9.12413241         0.00000000       0.00000000       0.00000000          1
H         4.95030618      10.33023357      11.10231807         0.00000000       0.00000000       0.00000000          1
6
pbc=[F, F, F] list_num_par=6 energy=-1.26974174 iter=20000 frozen=false Lattice="15.00000000 0.00000000 0.00000000 0.00000000 15.00000000 0.00000000 0.00000000 0.00000000 15.00000000" energy_frozen_part=0.00000000 Properties=species:S:1:pos:R:3:velocities:R:3:Z:I:1
H         7.49388137      10.33050186       9.94718937         0.00000000       0.00000000       0.00000000          1
H         3.79825650      10.53558364       8.56556582         0.00000000       0.00000000       0.00000000          1
H         5.70594987      12.40308232       9.38861899         0.00000000       0.00000000       0.00000000          1
H         6.34188233      10.53579903       7.41045482         0.00000000       0.00000000       0.00000000          1
H         5.58618204       8.46299584       9.12412831         0.00000000       0.00000000       0.00000000          1
H         4.95026669      10.33027326      11.10230100         0.00000000       0.00000000       0.00000000          1
6
pbc=[F, F, F] list_num_par=6 energy=-1.26974174 iter=20000 frozen=false Lattice="15.00000000 0.00000000 0.00000000 0.00000000 15.00000000 0.00000000 0.00000000 0.00000000 15.00000000" energy_frozen_part=0.00000000 Properties=species:S:1:pos:R:3:velocities:R:3:Z:I:1
H         7.49309900      10.32955211       9.94671714         0.00000000       0.00000000       0.00000000          1
H         3.79752224      10.53738564       8.56538391         0.00000000       0.00000000       0.00000000          1
H         5.70642001      12.40343007       9.38894234         0.00000000       0.00000000       0.00000000          1
H         6.34106881      10.53641401       7.41011776         0.00000000       0.00000000       0.00000000          1
H         5.58419663       8.46350271       9.12315941         0.00000000       0.00000000       0.00000000          1
H         4.94954626      10.33052768      11.10197921         0.00000000       0.00000000       0.00000000          1
6
pbc=[F, F, F] list_num_par=6 energy=-1.26974174 iter=20000 frozen=false Lattice="15.00000000 0.00000000 0.00000000 0.00000000 15.00000000 0.00000000 0.00000000 0.00000000 15.00000000" energy_frozen_part=0.00000000 Properties=species:S:1:pos:R:3:velocities:R:3:Z:I:1
H         7.49393116      10.33052514       9.94719326         0.00000000       0.00000000       0.00000000          1
H         3.79830524      10.53558175       8.56558628         0.00000000       0.00000000       0.00000000          1
H         5.70598732      12.40309330       9.38862701         0.00000000       0.00000000       0.00000000          1
H         6.34192317      10.53580806       7.41046459         0.00000000       0.00000000       0.00000000          1
H         5.58624535       8.46300439       9.12415841         0.00000000       0.00000000       0.00000000          1
H         4.95031981      10.33028825      11.10232120         0.00000000       0.00000000       0.00000000          1
6
pbc=[F, F, F] list_num_par=6 energy=-1.26974174 iter=20000 frozen=false Lattice="15.00000000 0.00000000 0.00000000 0.00000000 15.00000000 0.00000000 0.00000000 0.00000000 15.00000000" energy_frozen_part=0.00000000 Properties=species:S:1:pos:R:3:velocities:R:3:Z:I:1
H         7.48577932      10.33091755       9.94533182         0.00000000       0.00000000       0.00000000          1
H         3.79355576      10.55201166       8.55709394         0.00000000       0.00000000       0.00000000          1
H         5.70701293      12.41111250       9.38578973         0.00000000       0.00000000       0.00000000          1
H         6.33930487      10.54357232       7.40670268         0.00000000       0.00000000       0.00000000          1
H         5.57233118       8.47182018       9.11663174         0.00000000       0.00000000       0.00000000          1
H         4.94003439      10.33935668      11.09572165         0.00000000       0.00000000       0.00000000          1
6
pbc=[F, F, F] list_num_par=6 energy=-1.26974174 iter=20000 frozen=false Lattice="15.00000000 0.00000000 0.00000000 0.00000000 15.00000000 0.00000000 0.00000000 0.00000000 15.00000000" energy_frozen_part=0.00000000 Properties=species:S:1:pos:R:3:velocities:R:3:Z:I:1
H         7.49394730      10.33062772       9.94721546         0.00000000       0.00000000       0.00000000          1
H         3.79835519      10.53550630       8.56548068         0.00000000       0.00000000       0.00000000          1
H         5.70595003      12.40311587       9.38853490         0.00000000       0.00000000       0.00000000          1
H         6.34200743      10.53579802       7.41043725         0.00000000       0.00000000       0.00000000          1
H         5.58635825       8.46301995       9.12415963         0.00000000       0.00000000       0.00000000          1
H         4.95028990      10.33033256      11.10224943         0.00000000       0.00000000       0.00000000          1
6
pbc=[F, F, F] list_num_par=6 energy=-1.26974174 iter=20000 frozen=false Lattice="15.00000000 0.00000000 0.00000000 0.00000000 15.00000000 0.00000000 0.00000000 0.00000000 15.00000000" energy_frozen_part=0.00000000 Properties=species:S:1:pos:R:3:velocities:R:3:Z:I:1
H         7.49408685      10.33108735       9.94570308         0.00000000       0.00000000       0.00000000          1
H         3.79789734      10.53073419       8.56480498         0.00000000       0.00000000       0.00000000          1
H         5.70287056      12.40101372       9.38783705         0.00000000       0.00000000       0.00000000          1
H         6.34129472      10.53506619       7.40921427         0.00000000       0.00000000       0.00000000          1
H         5.58910635       8.46080612       9.12267624         0.00000000       0.00000000       0.00000000          1
H         4.95068634      10.32675066      11.10129352         0.00000000       0.00000000       0.00000000          1
6
pbc=[F, F, F] list_num_par=6 energy=-1.26974174 iter=20000 frozen=false Lattice="15.00000000 0.00000000 0.00000000 0.00000000 15.00000000 0.00000000 0.00000000 0.00000000 15.00000000" energy_frozen_part=0.00000000 Properties=species:S:1:pos:R:3:velocities:R:3:Z:I:1
H         7.49051175      10.33629612       9.94142977         0.00000000       0.00000000       0.00000000          1
H         3.79267434      10.53376917       8.56464459         0.00000000       0.00000000       0.00000000          1
H         5.69970868      12.40550389       9.37958108         0.00000000       0.00000000       0.00000000          1
H         6.33460005      10.53322414       7.40581645         0.00000000       0.00000000       0.00000000          1
H         5.58347570       8.46456230       9.12650393         0.00000000       0.00000000       0.00000000          1
H         4.94858077      10.33684648      11.10026773         0.00000000       0.00000000       0.00000000          1
6
pbc=[F, F, F] list_num_par=6 energy=-1.26974174 iter=20000 frozen=false Lattice="15.00000000 0.00000000 0.00000000 0.00000000 15.00000000 0.00000000 0.00000000 0.00000000 15.00000000" energy_frozen_part=0.00000000 Properties=species:S:1:pos:R:3:velocities:R:3:Z:I:1
H         7.49051847      10.33631330       9.94142873         0.00000000       0.00000000       0.00000000          1
H         3.79267521      10.53377381       8.56464626         0.00000000       0.00000000       0.00000000          1
H         5.69970343      12.40551625       9.37957667         0.00000000       0.00000000       0.00000000          1
H         6.33459408      10.53323880       7.40581086         0.00000000       0.00000000       0.00000000          1
H         5.58348718       8.46457164       9.12648887         0.00000000       0.00000000       0.00000000          1
H         4.94859409      10.33685667      11.10026288         0.00000000       0.00000000       0.00000000          1
6
pbc=[F, F, F] list_num_par=6 energy=-1.26974174 iter=20000 frozen=false Lattice="15.00000000 0.00000000 0.00000000 0.00000000 15.00000000 0.00000000 0.00000000 0.00000000 15.00000000" energy_frozen_part=0.00000000 Properties=species:S:1:pos:R:3:velocities:R:3:Z:I:1
H         7.49408851      10.33108213       9.94574111         0.00000000       0.00000000       0.00000000          1
H         3.79791902      10.53072719       8.56479980         0.00000000       0.00000000       0.00000000          1
H         5.70288419      12.40101534       9.38785613         0.00000000       0.00000000       0.00000000          1
H         6.34132687      10.53506024       7.40924335         0.00000000       0.00000000       0.00000000          1
H         5.58912400       8.46079150       9.12269736         0.00000000       0.00000000       0.00000000          1
H         4.95067613      10.32674970      11.10129502         0.00000000       0.00000000       0.00000000          1
6
pbc=[F, F, F] list_num_par=6 energy=-1.26974174 iter=20000 frozen=false Lattice="15.00000000 0.00000000 0.00000000 0.00000000 15.00000000 0.00000000 0.00000000 0.00000000 15.00000000" energy_frozen_part=0.00000000 Properties=species:S:1:pos:R:3:velocities:R:3:Z:I:1
H         7.49355377      10.33051609       9.94738500         0.00000000       0.00000000       0.00000000          1
H         3.79808926      10.53551812       8.56533565         0.00000000       0.00000000       0.00000000          1
H         5.70569144      12.40306894       9.38850769         0.00000000       0.00000000       0.00000000          1
H         6.34184196      10.53567959       7.41051424         0.00000000       0.00000000       0.00000000          1
H         5.58594599       8.46296512       9.12421864         0.00000000       0.00000000       0.00000000          1
H         4.94980556      10.33035865      11.10221404         0.00000000       0.00000000       0.00000000          1
6
pbc=[F, F, F] list_num_par=6 energy=-1.26974174 iter=20000 frozen=false Lattice="15.00000000 0.00000000 0.00000000 0.00000000 15.00000000 0.00000000 0.00000000 0.00000000 15.00000000" energy_frozen_part=0.00000000 Properties=species:S:1:pos:R:3:velocities:R:3:Z:I:1
H         7.49352986      10.33058386       9.94744016         0.00000000       0.00000000       0.00000000          1
H         3.79807519      10.53535593       8.56533996         0.00000000       0.00000000       0.00000000          1
H         5.70555948      12.40302915       9.38849193         0.00000000       0.00000000       0.00000000          1
H         6.34183986      10.53562500       7.41055034         0.00000000       0.00000000       0.00000000          1
H         5.58604342       8.46290498       9.12428664         0.00000000       0.00000000       0.00000000          1
H         4.94977089      10.33030735      11.10223276         0.00000000       0.00000000       0.00000000          1
6
pbc=[F, F, F] list_num_par=6 energy=-1.26974174 iter=20000 frozen=false Lattice="15.00000000 0.00000000 0.00000000 0.00000000 15.00000000 0.00000000 0.00000000 0.00000000 15.00000000" energy_frozen_part=0.00000000 Properties=species:S:1:pos:R:3:velocities:R:3:Z:I:1
H         7.49392972      10.33051079       9.94720334         0.00000000       0.00000000       0.00000000          1
H         3.79830025      10.53554184       8.56559377         0.00000000       0.00000000       0.00000000          1
H         5.70597999      12.40307002       9.38863505         0.00000000       0.00000000       0.00000000          1
H         6.34191571      10.53578908       7.41047039         0.00000000       0.00000000       0.00000000          1
H         5.58625657       8.46298635       9.12417351         0.00000000       0.00000000       0.00000000          1
H         4.95030831      10.33027202      11.10232705         0.00000000       0.00000000       0.00000000          1
6
pbc=[F, F, F] list_num_par=6 energy=-1.26974174 iter=20000 frozen=false Lattice="15.00000000 0.00000000 0.00000000 0.00000000 15.00000000 0.00000000 0.00000000 0.00000000 15.00000000" energy_frozen_part=0.00000000 Properties=species:S:1:pos:R:3:velocities:R:3:Z:I:1
H         7.48578119      10.33092511       9.94533225         0.00000000       0.00000000       0.00000000          1
H         3.79356403      10.55201403       8.55708748         0.00000000       0.00000000       0.00000000          1
H         5.70701116      12.41110898       9.38580044         0.00000000       0.00000000       0.00000000          1
H         6.33930945      10.54358785       7.40670212         0.00000000       0.00000000       0.00000000          1
H         5.57233379       8.47182578       9.11663142         0.00000000       0.00000000       0.00000000          1
H         4.94003308      10.33935502      11.09572994         0.00000000       0.00000000       0.00000000          1
6
pbc=[F, F, F] list_num_par=6 energy=-1.26974174 iter=20000 frozen=false Lattice="15.00000000 0.00000000 0.00000000 0.00000000 15.00000000 0.00000000 0.00000000 0.00000000 15.00000000" energy_frozen_part=0.00000000 Properties=species:S:1:pos:R:3:velocities:R:3:Z:I:1
H         7.49391019      10.33065721       9.94718176         0.00000000       0.00000000       0.00000000          1
H         3.79829638      10.53553571       8.56551380         0.00000000       0.00000000       0.00000000          1
H         5.70590340      12.40314893       9.38852378         0.00000000       0.00000000       0.00000000          1
H         6.34192866      10.53581442       7.41042639         0.00000000       0.00000000       0.00000000          1
H         5.58630268       8.46304323       9.12417217         0.00000000       0.00000000       0.00000000          1
H         4.95028320      10.33036876      11.10227169         0.00000000       0.00000000       0.00000000          1
6
pbc=[F, F, F] list_num_par=6 energy=-1.26974174 iter=20000 frozen=false Lattice="15.00000000 0.00000000 0.00000000 0.00000000 15.00000000 0.00000000 0.00000000 0.00000000 15.00000000" energy_frozen_part=0.00000000 Properties=species:S:1:pos:R:3:velocities:R:3:Z:I:1
H         7.49367228      10.33088942       9.94607999         0.00000000       0.00000000       0.00000000          1
H         3.79776439      10.53115162       8.56451186         0.00000000       0.00000000       0.00000000          1
H         5.70292580      12.40112630       9.38784017         0.00000000       0.00000000       0.00000000          1
H         6.34137297      10.53501670       7.40938138         0.00000000       0.00000000       0.00000000          1
H         5.58851312       8.46091552       9.12274830         0.00000000       0.00000000       0.00000000          1
H         4.95006102      10.32703532      11.10120334         0.00000000       0.00000000       0.00000000          1
6
pbc=[F, F, F] list_num_par=6 energy=-1.26974174 iter=20000 frozen=false Lattice="15.00000000 0.00000000 0.00000000 0.00000000 15.00000000 0.00000000 0.00000000 0.00000000 15.00000000" energy_frozen_part=0.00000000 Properties=species:S:1:pos:R:3:velocities:R:3:Z:I:1
H         7.49394504      10.33062660       9.94723655         0.00000000       0.00000000       0.00000000          1
H         3.79835689      10.53549871       8.56548093         0.00000000       0.00000000       0.00000000          1