6
pbc=[F, F, F] list_num_par=6 frozen=false iter=9 energy=48.98603245 Lattice="15.00000000 0.00000000 0.00000000 0.00000000 15.00000000 0.00000000 0.00000000 0.00000000 15.00000000" energy_frozen_part=0.00000000 Properties=species:S:1:pos:R:3:velocities:R:3:Z:I:1
H        13.63644909      14.71723358       8.82780040         0.00000000       0.00000000       0.00000000          1
H        13.67374759      11.19737684       9.33680852         0.00000000       0.00000000       0.00000000          1
H         8.13821537       3.30702721      10.09817542         0.00000000       0.00000000       0.00000000          1
H         9.01068385      11.32480104       4.67002517         0.00000000       0.00000000       0.00000000          1
H         1.29584307       0.79048972       1.30775362         0.00000000       0.00000000       0.00000000          1
H         8.51538213      10.98032982       6.21867982         0.00000000       0.00000000       0.00000000          1
6
pbc=[F, F, F] list_num_par=6 frozen=false iter=19 energy=5.66763820 Lattice="15.00000000 0.00000000 0.00000000 0.00000000 15.00000000 0.00000000 0.00000000 0.00000000 15.00000000" energy_frozen_part=0.00000000 Properties=species:S:1:pos:R:3:velocities:R:3:Z:I:1
H         2.29114890       5.01410057       8.17356039         0.00000000       0.00000000       0.00000000          1
H        13.17586904      14.52630819      12.87068512         0.00000000       0.00000000       0.00000000          1
H         7.99799961      12.19579269       6.37155750         0.00000000       0.00000000       0.00000000          1
H         0.38489106       4.79506817      12.94359177         0.00000000       0.00000000       0.00000000          1
H         6.30880676      12.79556161       5.57740368         0.00000000       0.00000000       0.00000000          1
H        11.06739817       0.37020968       4.54775434         0.00000000       0.00000000       0.00000000          1
6
pbc=[F, F, F] list_num_par=6 frozen=false iter=29 energy=0.31847907 Lattice="15.00000000 0.00000000 0.00000000 0.00000000 15.00000000 0.00000000 0.00000000 0.00000000 15.00000000" energy_frozen_part=0.00000000 Properties=species:S:1:pos:R:3:velocities:R:3:Z:I:1
H         4.80793001       6.37237759       9.19414015         0.00000000       0.00000000       0.00000000          1
H        10.61955373       0.20657147       6.69345821         0.00000000       0.00000000       0.00000000          1
H         1.63462015       1.95670669      13.57214853         0.00000000       0.00000000       0.00000000          1
H         9.12111201      11.55973923       2.04680005         0.00000000       0.00000000       0.00000000          1
H         4.37930019       1.12107623       3.76392882         0.00000000       0.00000000       0.00000000          1
H         7.76399765      13.17795763       3.03127593         0.00000000       0.00000000       0.00000000          1
6
pbc=[F, F, F] list_num_par=6 frozen=false iter=39 energy=-0.00429172 Lattice="15.00000000 0.00000000 0.00000000 0.00000000 15.00000000 0.00000000 0.00000000 0.00000000 15.00000000" energy_frozen_part=0.00000000 Properties=species:S:1:pos:R:3:velocities:R:3:Z:I:1
H        12.72842373       8.03224882      10.57317187         0.00000000       0.00000000       0.00000000          1
H         8.96363550       2.95941834       3.34712120         0.00000000       0.00000000       0.00000000          1
H         3.68356354       5.14324247       6.64384922         0.00000000       0.00000000       0.00000000          1
H         9.66042691      13.92928209       1.25310068         0.00000000       0.00000000       0.00000000          1
H        11.75957565       7.94419720       0.92661014         0.00000000       0.00000000       0.00000000          1
H         7.03717261      13.94075592      12.55364484         0.00000000       0.00000000       0.00000000          1
6
pbc=[F, F, F] list_num_par=6 frozen=false iter=49 energy=-0.00744692 Lattice="15.00000000 0.00000000 0.00000000 0.00000000 15.00000000 0.00000000 0.00000000 0.00000000 15.00000000" energy_frozen_part=0.00000000 Properties=species:S:1:pos:R:3:velocities:R:3:Z:I:1
H         6.02171866       1.23691736       7.43089233         0.00000000       0.00000000       0.00000000          1
H         8.15103106      14.20033093       8.29818485         0.00000000       0.00000000       0.00000000          1
H         1.69242746       9.83393278       6.11886195         0.00000000       0.00000000       0.00000000          1
H        10.83376955       1.19940357      10.28996005         0.00000000       0.00000000       0.00000000          1
H         4.54994753       2.26529061       0.12555805         0.00000000       0.00000000       0.00000000          1
H         8.52392654       6.64827684      10.31183641         0.00000000       0.00000000       0.00000000          1
6
pbc=[F, F, F] list_num_par=6 frozen=false iter=59 energy=-0.01113879 Lattice="15.00000000 0.00000000 0.00000000 0.00000000 15.00000000 0.00000000 0.00000000 0.00000000 15.00000000" energy_frozen_part=0.00000000 Properties=species:S:1:pos:R:3:velocities:R:3:Z:I:1
H         4.66101005       1.31659772       7.59108294         0.00000000       0.00000000       0.00000000          1
H         9.01211930       5.94772884       5.20446782         0.00000000       0.00000000       0.00000000          1
H         5.10110159       6.36424402       9.50889720         0.00000000       0.00000000       0.00000000          1
H        14.05719391       9.31712064       7.43104821         0.00000000       0.00000000       0.00000000          1
H         1.99368157       0.49124388       2.48503622         0.00000000       0.00000000       0.00000000          1
H        13.24952343      12.57173465      14.26452482         0.00000000       0.00000000       0.00000000          1
6
pbc=[F, F, F] list_num_par=6 frozen=false iter=69 energy=-0.01379724 Lattice="15.00000000 0.00000000 0.00000000 0.00000000 15.00000000 0.00000000 0.00000000 0.00000000 15.00000000" energy_frozen_part=0.00000000 Properties=species:S:1:pos:R:3:velocities:R:3:Z:I:1
H         9.43591013       9.04440215       9.01978219         0.00000000       0.00000000       0.00000000          1
H        12.43952398       3.36611856       8.49988419         0.00000000       0.00000000       0.00000000          1
H         1.06228854      10.67869870      13.89778930         0.00000000       0.00000000       0.00000000          1
H         7.74283271       7.30193676      14.12930011         0.00000000       0.00000000       0.00000000          1
H         4.37042304       8.44394491       7.05931934         0.00000000       0.00000000       0.00000000          1
H         1.59649810      12.90693281       6.61008698         0.00000000       0.00000000       0.00000000          1
6
pbc=[F, F, F] list_num_par=6 frozen=false iter=79 energy=-0.01738205 Lattice="15.00000000 0.00000000 0.00000000 0.00000000 15.00000000 0.00000000 0.00000000 0.00000000 15.00000000" energy_frozen_part=0.00000000 Properties=species:S:1:pos:R:3:velocities:R:3:Z:I:1
H         2.83830920       4.52872082       0.21884637         0.00000000       0.00000000       0.00000000          1
H         4.55988155       7.87872692       8.42598070         0.00000000       0.00000000       0.00000000          1
H         7.55192038       2.65895859       9.06540423         0.00000000       0.00000000       0.00000000          1
H         3.07479651       9.69801555       0.56873437         0.00000000       0.00000000       0.00000000          1
H         4.75962222      12.80764121       3.81489355         0.00000000       0.00000000       0.00000000          1
H        13.45027898       4.52730877       9.61123946         0.00000000       0.00000000       0.00000000          1
6
pbc=[F, F, F] list_num_par=6 frozen=false iter=89 energy=-0.02164429 Lattice="15.00000000 0.00000000 0.00000000 0.00000000 15.00000000 0.00000000 0.00000000 0.00000000 15.00000000" energy_frozen_part=0.00000000 Properties=species:S:1:pos:R:3:velocities:R:3:Z:I:1
H         8.89750280      14.80604447      11.03404406         0.00000000       0.00000000       0.00000000          1
H         0.68211500      14.73703227       3.65440556         0.00000000       0.00000000       0.00000000          1
H         0.99189115       8.19409835       5.14819846         0.00000000       0.00000000       0.00000000          1
H        12.10565517       9.33699871      10.51391277         0.00000000       0.00000000       0.00000000          1
H         7.33169426       4.58593821      14.72170588         0.00000000       0.00000000       0.00000000          1
H        12.96444190      10.33704263       6.59814126         0.00000000       0.00000000       0.00000000          1
6
pbc=[F, F, F] list_num_par=6 frozen=false iter=99 energy=-0.02433084 Lattice="15.00000000 0.00000000 0.00000000 0.00000000 15.00000000 0.00000000 0.00000000 0.00000000 15.00000000" energy_frozen_part=0.00000000 Properties=species:S:1:pos:R:3:velocities:R:3:Z:I:1
H         4.49155941       9.41849643      13.60345877         0.00000000       0.00000000       0.00000000          1
H         3.31364842      10.14299091       1.86186289         0.00000000       0.00000000       0.00000000          1
H         3.30221997       4.15196885      12.19523404         0.00000000       0.00000000       0.00000000          1
H         2.72634120      12.73211288      12.07280414         0.00000000       0.00000000       0.00000000          1
H        11.81687805       4.49328172      12.12180899         0.00000000       0.00000000       0.00000000          1
H        12.15764375       3.48595151       3.61954550         0.00000000       0.00000000       0.00000000          1
6
pbc=[F, F, F] list_num_par=6 frozen=false iter=109 energy=-0.02949646 Lattice="15.00000000 0.00000000 0.00000000 0.00000000 15.00000000 0.00000000 0.00000000 0.00000000 15.00000000" energy_frozen_part=0.00000000 Properties=species:S:1:pos:R:3:velocities:R:3:Z:I:1
H         5.72477595       3.48190735       3.71571202         0.00000000       0.00000000       0.00000000          1
H         9.56724556      10.57414086       2.00579444         0.00000000       0.00000000       0.00000000          1
H        11.89794956      14.95193466       2.47346040         0.00000000       0.00000000       0.00000000          1
H         4.23061060      11.16558737       3.06057480         0.00000000       0.00000000       0.00000000          1
H        11.46646574      12.56233891       6.16200934         0.00000000       0.00000000       0.00000000          1
H         4.16693761      13.37537877      12.56880186         0.00000000       0.00000000       0.00000000          1
6
pbc=[F, F, F] list_num_par=6 frozen=false iter=119 energy=-0.03420240 Lattice="15.00000000 0.00000000 0.00000000 0.00000000 15.00000000 0.00000000 0.00000000 0.00000000 15.00000000" energy_frozen_part=0.00000000 Properties=species:S:1:pos:R:3:velocities:R:3:Z:I:1
H        12.74403278       1.18718651      14.96624224         0.00000000       0.00000000       0.00000000          1
H         1.60765048      11.82217333       3.51370949         0.00000000       0.00000000       0.00000000          1
H        13.41309002      13.45852625       7.80338423         0.00000000       0.00000000       0.00000000          1
H        11.49949055       6.43538497       0.04742867         0.00000000       0.00000000       0.00000000          1
H         6.50568753       4.58204541      14.20521304         0.00000000       0.00000000       0.00000000          1
H         1.20678154      10.91546545       7.09473687         0.00000000       0.00000000       0.00000000          1
6
pbc=[F, F, F] list_num_par=6 frozen=false iter=129 energy=-0.03932726 Lattice="15.00000000 0.00000000 0.00000000 0.00000000 15.00000000 0.00000000 0.00000000 0.00000000 15.00000000" energy_frozen_part=0.00000000 Properties=species:S:1:pos:R:3:velocities:R:3:Z:I:1
H         8.26005503      14.19260158       6.64016627         0.00000000       0.00000000       0.00000000          1
H         6.02794852      13.05929025      11.76297169         0.00000000       0.00000000       0.00000000          1
H         1.24532244      12.76141986      14.57924406         0.00000000       0.00000000       0.00000000          1
H         1.57632069       3.22125443      12.12464283         0.00000000       0.00000000       0.00000000          1
H        10.52897215      12.30155306       4.37090552         0.00000000       0.00000000       0.00000000          1
H        10.88710576       5.59777790      11.19115153         0.00000000       0.00000000       0.00000000          1
6
pbc=[F, F, F] list_num_par=6 frozen=false iter=139 energy=-0.04413353 Lattice="15.00000000 0.00000000 0.00000000 0.00000000 15.00000000 0.00000000 0.00000000 0.00000000 15.00000000" energy_frozen_part=0.00000000 Properties=species:S:1:pos:R:3:velocities:R:3:Z:I:1
H         7.81758287       4.49285176       7.77094880         0.00000000       0.00000000       0.00000000          1
H        11.77942812       3.91852757       6.79416919         0.00000000       0.00000000       0.00000000          1
H         1.36380113      14.64679219       5.44366319         0.00000000       0.00000000       0.00000000          1
H         5.47549962      14.09013718       3.12399388         0.00000000       0.00000000       0.00000000          1
H         4.18546931       8.70673137       3.41489050         0.00000000       0.00000000       0.00000000          1
H         8.76175399       9.98867450       2.48439777         0.00000000       0.00000000       0.00000000          1
6
pbc=[F, F, F] list_num_par=6 frozen=false iter=149 energy=-0.05385819 Lattice="15.00000000 0.00000000 0.00000000 0.00000000 15.00000000 0.00000000 0.00000000 0.00000000 15.00000000" energy_frozen_part=0.00000000 Properties=species:S:1:pos:R:3:velocities:R:3:Z:I:1
H         0.16599497      13.21591676      13.47338591         0.00000000       0.00000000       0.00000000          1
H         3.17180717      12.95814850      11.38940518         0.00000000       0.00000000       0.00000000          1
H        11.79660952       4.89034515       5.25751431         0.00000000       0.00000000       0.00000000          1
H         2.61985558       7.11686124       2.07046417         0.00000000       0.00000000       0.00000000          1
H         7.57421716       4.49905314       5.06953984         0.00000000       0.00000000       0.00000000          1
H         4.38671255      14.19740891       1.23358256         0.00000000       0.00000000       0.00000000          1
6
pbc=[F, F, F] list_num_par=6 frozen=false iter=159 energy=-0.06265186 Lattice="15.00000000 0.00000000 0.00000000 0.00000000 15.00000000 0.00000000 0.00000000 0.00000000 15.00000000" energy_frozen_part=0.00000000 Properties=species:S:1:pos:R:3:velocities:R:3:Z:I:1
H        10.35281637      12.34858708       1.75729335         0.00000000       0.00000000       0.00000000          1
H        13.05774533      11.42297633       6.28661798         0.00000000       0.00000000       0.00000000          1
H        14.43706983      11.05506706      14.70725473         0.00000000       0.00000000       0.00000000          1
H         9.87688615       6.19253708       5.56411776         0.00000000       0.00000000       0.00000000          1
H         8.84147238       8.70755767       3.01322434         0.00000000       0.00000000       0.00000000          1
H         8.79085148      10.96850437      14.95714410         0.00000000       0.00000000       0.00000000          1
6
pbc=[F, F, F] list_num_par=6 frozen=false iter=169 energy=-0.06777348 Lattice="15.00000000 0.00000000 0.00000000 0.00000000 15.00000000 0.00000000 0.00000000 0.00000000 15.00000000" energy_frozen_part=0.00000000 Properties=species:S:1:pos:R:3:velocities:R:3:Z:I:1
H        10.27316715       3.63927885      12.10915919         0.00000000       0.00000000       0.00000000          1
H         2.30336243       8.30047844       4.73844166         0.00000000       0.00000000       0.00000000          1
H         4.61972143      14.48248013       9.28305679         0.00000000       0.00000000       0.00000000          1
H        11.34323903       5.13139817       9.11637694         0.00000000       0.00000000       0.00000000          1
H         2.45985993       5.36273141       7.65941210         0.00000000       0.00000000       0.00000000          1
H         2.07147615      10.98374508      12.72811225         0.00000000       0.00000000       0.00000000          1
6
pbc=[F, F, F] list_num_par=6 frozen=false iter=179 energy=-0.07037482 Lattice="15.00000000 0.00000000 0.00000000 0.00000000 15.00000000 0.00000000 0.00000000 0.00000000 15.00000000" energy_frozen_part=0.00000000 Properties=species:S:1:pos:R:3:velocities:R:3:Z:I:1
H         6.42396854      14.02758815       6.32580778         0.00000000       0.00000000       0.00000000          1
H         7.06615026      12.35835629      11.53671657         0.00000000       0.00000000       0.00000000          1
H        13.18834266      12.05468775       4.84690814         0.00000000       0.00000000       0.00000000          1
H         2.08994428       2.82959773       6.04928950         0.00000000       0.00000000       0.00000000          1
H         2.63033773       3.51576520       9.37503751         0.00000000       0.00000000       0.00000000          1
H         4.66618175       6.98834188      11.13280967         0.00000000       0.00000000       0.00000000          1
6
pbc=[F, F, F] list_num_par=6 frozen=false iter=189 energy=-0.07553105 Lattice="15.00000000 0.00000000 0.00000000 0.00000000 15.00000000 0.00000000 0.00000000 0.00000000 15.00000000" energy_frozen_part=0.00000000 Properties=species:S:1:pos:R:3:velocities:R:3:Z:I:1
H        13.99105384       4.47943376       0.51626807         0.00000000       0.00000000       0.00000000          1
H        11.26547522       2.89794090      10.71926642         0.00000000       0.00000000       0.00000000          1
H         3.60144061       7.68047619       6.28460146         0.00000000       0.00000000       0.00000000          1
H         0.08355835       5.86303899       4.09632938         0.00000000       0.00000000       0.00000000          1
H        10.80550162       9.88441296       1.40372959         0.00000000       0.00000000       0.00000000          1
H         9.33217394      12.73398501       2.08946956         0.00000000       0.00000000       0.00000000          1
6
pbc=[F, F, F] list_num_par=6 frozen=false iter=199 energy=-0.07905754 Lattice="15.00000000 0.00000000 0.00000000 0.00000000 15.00000000 0.00000000 0.00000000 0.00000000 15.00000000" energy_frozen_part=0.00000000 Properties=species:S:1:pos:R:3:velocities:R:3:Z:I:1
H         1.72799900       4.31085605       0.53138440         0.00000000       0.00000000       0.00000000          1
H        12.33119735       8.85874493      10.20693520         0.00000000       0.00000000       0.00000000          1
H        12.94358886       1.13881342       2.25903408         0.00000000       0.00000000       0.00000000          1
H         8.13110311       9.20901236       8.84827075         0.00000000       0.00000000       0.00000000          1
H        14.88059503       8.01147087       8.14658702         0.00000000       0.00000000       0.00000000          1
H         8.05612014      13.62422706      10.08633871         0.00000000       0.00000000       0.00000000          1
6
pbc=[F, F, F] list_num_par=6 frozen=false iter=209 energy=-0.08291388 Lattice="15.00000000 0.00000000 0.00000000 0.00000000 15.00000000 0.00000000 0.00000000 0.00000000 15.00000000" energy_frozen_part=0.00000000 Properties=species:S:1:pos:R:3:velocities:R:3:Z:I:1
H         3.15866334       5.66291448      14.56005770         0.00000000       0.00000000       0.00000000          1
H        11.04316968       1.98914124       4.68788036         0.00000000       0.00000000       0.00000000          1
H         4.49099137       1.45217626       7.84632472         0.00000000       0.00000000       0.00000000          1
H         5.62660366      13.03337049       9.55870433         0.00000000       0.00000000       0.00000000          1
H         0.39148919      14.80341047       5.33951525         0.00000000       0.00000000       0.00000000          1
H         3.76371433       3.52683600      13.14207935         0.00000000       0.00000000       0.00000000          1
6
pbc=[F, F, F] list_num_par=6 frozen=false iter=219 energy=-0.08756832 Lattice="15.00000000 0.00000000 0.00000000 0.00000000 15.00000000 0.00000000 0.00000000 0.00000000 15.00000000" energy_frozen_part=0.00000000 Properties=species:S:1:pos:R:3:velocities:R:3:Z:I:1
H         8.43622104      12.73569685      12.16586111         0.00000000       0.00000000       0.00000000          1
H         7.60899164       2.86874868       8.37592176         0.00000000       0.00000000       0.00000000          1
H        12.77386950      12.73049525      13.03802030         0.00000000       0.00000000       0.00000000          1
H        11.67268436       9.57529976      13.05037035         0.00000000       0.00000000       0.00000000          1
H         5.86384748       8.16833591      11.00097597         0.00000000       0.00000000       0.00000000          1
H         1.89008603      11.83861068       4.95259332         0.00000000       0.00000000       0.00000000          1
6
pbc=[F, F, F] list_num_par=6 frozen=false iter=229 energy=-0.09354295 Lattice="15.00000000 0.00000000 0.00000000 0.00000000 15.00000000 0.00000000 0.00000000 0.00000000 15.00000000" energy_frozen_part=0.00000000 Properties=species:S:1:pos:R:3:velocities:R:3:Z:I:1
H         1.60143005       1.61399426       0.66250392         0.00000000       0.00000000       0.00000000          1
H         3.27868203       7.20612883       8.71737272         0.00000000       0.00000000       0.00000000          1
H        10.02046811      11.43320111       1.60836569         0.00000000       0.00000000       0.00000000          1
H         9.34225913      13.41021395       3.79195548         0.00000000       0.00000000       0.00000000          1
H        10.03117760       6.77800792      12.86138962         0.00000000       0.00000000       0.00000000          1
H        13.35978742       3.09259986      13.01754410         0.00000000       0.00000000       0.00000000          1
6
pbc=[F, F, F] list_num_par=6 frozen=false iter=239 energy=-0.09676707 Lattice="15.00000000 0.00000000 0.00000000 0.00000000 15.00000000 0.00000000 0.00000000 0.00000000 15.00000000" energy_frozen_part=0.00000000 Properties=species:S:1:pos:R:3:velocities:R:3:Z:I:1
H         5.17875798       0.37982505      14.86685770         0.00000000       0.00000000       0.00000000          1
H         9.75295475      11.96323180      10.51629383         0.00000000       0.00000000       0.00000000          1
H         1.90692125       7.01689437       6.29949753         0.00000000       0.00000000       0.00000000          1
H         0.94822000       1.76068202      11.96674026         0.00000000       0.00000000       0.00000000          1
H         7.66851590       6.29418665       3.88402417         0.00000000       0.00000000       0.00000000          1
H         8.15053732      11.71012988       7.99971877         0.00000000       0.00000000       0.00000000          1
6
pbc=[F, F, F] list_num_par=6 frozen=false iter=249 energy=-0.09856822 Lattice="15.00000000 0.00000000 0.00000000 0.00000000 15.00000000 0.00000000 0.00000000 0.00000000 15.00000000" energy_frozen_part=0.00000000 Properties=species:S:1:pos:R:3:velocities:R:3:Z:I:1
H        12.43840381       3.71507013      13.40598666         0.00000000       0.00000000       0.00000000          1
H         2.46113622       6.11126343       1.73488415         0.00000000       0.00000000       0.00000000          1
H        11.47415171      14.15810947      12.30753805         0.00000000       0.00000000       0.00000000          1
H        13.10522596       5.33249141       9.99893469         0.00000000       0.00000000       0.00000000          1
H         2.00308565       2.96619693       1.33961859         0.00000000       0.00000000       0.00000000          1
H         4.61511213       8.67196756      14.13665942         0.00000000       0.00000000       0.00000000          1
6
pbc=[F, F, F] list_num_par=6 frozen=false iter=259 energy=-0.10051854 Lattice="15.00000000 0.00000000 0.00000000 0.00000000 15.00000000 0.00000000 0.00000000 0.00000000 15.00000000" energy_frozen_part=0.00000000 Properties=species:S:1:pos:R:3:velocities:R:3:Z:I:1
H         5.62973015       0.19706584       7.73632406         0.00000000       0.00000000       0.00000000          1
H         0.13690150       4.85103379       1.11904658         0.00000000       0.00000000       0.00000000          1
H        14.54222198      10.88693485       8.91547207         0.00000000       0.00000000       0.00000000          1
H        10.85868840       4.13010262       8.79354451         0.00000000       0.00000000       0.00000000          1
H         2.56197588       3.61795795       1.57222240         0.00000000       0.00000000       0.00000000          1
H         4.98518860      13.58119994      10.93645510         0.00000000       0.00000000       0.00000000          1
6
pbc=[F, F, F] list_num_par=6 frozen=false iter=269 energy=-0.10297305 Lattice="15.00000000 0.00000000 0.00000000 0.00000000 15.00000000 0.00000000 0.00000000 0.00000000 15.00000000" energy_frozen_part=0.00000000 Properties=species:S:1:pos:R:3:velocities:R:3:Z:I:1
H        12.26019465      12.71033218       6.22379050         0.00000000       0.00000000       0.00000000          1
H        10.24108200       7.16487983       7.73417869         0.00000000       0.00000000       0.00000000          1
H        13.58415937       2.53643550      11.25913640         0.00000000       0.00000000       0.00000000          1
H        14.42665305       4.85512227       0.32834872         0.00000000       0.00000000       0.00000000          1
H        12.23217449      14.84135555       4.39768038         0.00000000       0.00000000       0.00000000          1
H         2.21413210      10.84714527      10.95660581         0.00000000       0.00000000       0.00000000          1
6
pbc=[F, F, F] list_num_par=6 frozen=false iter=279 energy=-0.10694167 Lattice="15.00000000 0.00000000 0.00000000 0.00000000 15.00000000 0.00000000 0.00000000 0.00000000 15.00000000" energy_frozen_part=0.00000000 Properties=species:S:1:pos:R:3:velocities:R:3:Z:I:1
H         2.96092922       5.41202637       6.93334925         0.00000000       0.00000000       0.00000000          1
H         7.31499892       0.69294172       2.23324842         0.00000000       0.00000000       0.00000000          1
H         2.20230056      14.15895038       6.19968571         0.00000000       0.00000000       0.00000000          1
H        14.91859654       3.14347708       4.51751419         0.00000000       0.00000000       0.00000000          1
H         3.55173725       6.01948244       4.27936666         0.00000000       0.00000000       0.00000000          1
H         5.93989048       7.77167360       0.02070317         0.00000000       0.00000000       0.00000000          1
6
pbc=[F, F, F] list_num_par=6 frozen=false iter=289 energy=-0.10959689 Lattice="15.00000000 0.00000000 0.00000000 0.00000000 15.00000000 0.00000000 0.00000000 0.00000000 15.00000000" energy_frozen_part=0.00000000 Properties=species:S:1:pos:R:3:velocities:R:3:Z:I:1
H        11.34100973      14.10390969      10.92947445         0.00000000       0.00000000       0.00000000          1
H         1.91043912      13.86528287      10.36949640         0.00000000       0.00000000       0.00000000          1
H        14.54009928      13.73728279       8.09289782         0.00000000       0.00000000       0.00000000          1
H        13.07575065       5.11700468      10.05839890         0.00000000       0.00000000       0.00000000          1
H         5.76418046       9.60034698      12.85958705         0.00000000       0.00000000       0.00000000          1
H        11.68410334       6.42992013      12.33874794         0.00000000       0.00000000       0.00000000          1
6
pbc=[F, F, F] list_num_par=6 frozen=false iter=299 energy=-0.11261858 Lattice="15.00000000 0.00000000 0.00000000 0.00000000 15.00000000 0.00000000 0.00000000 0.00000000 15.00000000" energy_frozen_part=0.00000000 Properties=species:S:1:pos:R:3:velocities:R:3:Z:I:1
H         5.40035376       4.92468180      14.63624274         0.00000000       0.00000000       0.00000000          1
H        14.79576153      11.30705763       3.10235148         0.00000000       0.00000000       0.00000000          1
H         7.37503790       2.67515713      10.52250336         0.00000000       0.00000000       0.00000000          1
H         2.17812664       4.39658020      11.86931254         0.00000000       0.00000000       0.00000000          1
H         6.21627081       4.44918226       7.60328287         0.00000000       0.00000000       0.00000000          1
H         4.23135615       7.25888615       9.96362570         0.00000000       0.00000000       0.00000000          1
6
pbc=[F, F, F] list_num_par=6 frozen=false iter=309 energy=-0.11546585 Lattice="15.00000000 0.00000000 0.00000000 0.00000000 15.00000000 0.00000000 0.00000000 0.00000000 15.00000000" energy_frozen_part=0.00000000 Properties=species:S:1:pos:R:3:velocities:R:3:Z:I:1
H         4.29221305       7.87208585      12.01953516         0.00000000       0.00000000       0.00000000          1
H         8.08480886      14.59967555       3.88103977         0.00000000       0.00000000       0.00000000          1